********************************************************************************
*                       GENERAL UTILITY LATTICE PROGRAM                        *
*                                 Julian Gale                                  *
*                       Curtin Institute for Computation                       *
*                           Department of Chemistry                            *
*                    Curtin University, Western Australia                      *
********************************************************************************
* Version = 4.5.3 * Last modified =  19th April 2017                           *
********************************************************************************

  ReaxFF: Bond order cutoffs: 

  Species number =    1   4.04098
  Species number =    2   4.04098


*  optimise     - perform optimisation run                                     *
*  conp         - constant pressure calculation                                *
*  operators    - output bulk symmetry operators                               *
********************************************************************************
* the title                                                                    *
********************************************************************************


  Job Started  at 02:12.39 20th September  2018                               

  Number of CPUs =     1


  Total number of configurations input =   1

********************************************************************************
*  Input for Configuration =   1 : main-geometry                               *
********************************************************************************

  Formula = Fe4S8                                                       

  Number of irreducible atoms/shells =      12


  Total number atoms/shells =      12

  Dimensionality = 3               :  Bulk   



  Cartesian lattice vectors (Angstroms) :

        5.380000    0.000000    0.000000
        0.000000    5.380000    0.000000
        0.000000    0.000000    5.380000

  Cell parameters (Angstroms/Degrees):

  a =       5.3800    alpha =  90.0000
  b =       5.3800    beta  =  90.0000
  c =       5.3800    gamma =  90.0000

  Initial cell volume =         155.720872 Angs**3

  Temperature of configuration =  0.000     K 

  Pressure of configuration =         0.000 GPa 

  Fractional coordinates of asymmetric unit :

--------------------------------------------------------------------------------
   No.  Atomic       x           y          z         Charge      Occupancy
        Label      (Frac)      (Frac)     (Frac)        (e)         (Frac)  
--------------------------------------------------------------------------------
      1 Fe    c    0.000000    0.000000    0.000000     0.00000    1.000000    
      2 Fe    c    0.500000 *  0.000000 *  0.500000 *   0.00000    1.000000    
      3 Fe    c    0.000000 *  0.500000 *  0.500000 *   0.00000    1.000000    
      4 Fe    c    0.500000 *  0.500000 *  0.000000 *   0.00000    1.000000    
      5 S     c    0.338000 *  0.338000 *  0.338000 *   0.00000    1.000000    
      6 S     c    0.662000 *  0.662000 *  0.662000 *   0.00000    1.000000    
      7 S     c    0.162000 *  0.662000 *  0.838000 *   0.00000    1.000000    
      8 S     c    0.838000 *  0.338000 *  0.162000 *   0.00000    1.000000    
      9 S     c    0.662000 *  0.838000 *  0.162000 *   0.00000    1.000000    
     10 S     c    0.338000 *  0.162000 *  0.838000 *   0.00000    1.000000    
     11 S     c    0.838000 *  0.162000 *  0.662000 *   0.00000    1.000000    
     12 S     c    0.162000 *  0.838000 *  0.338000 *   0.00000    1.000000    
--------------------------------------------------------------------------------



********************************************************************************
*  General input information                                                   *
********************************************************************************

  Species output for all configurations : 

--------------------------------------------------------------------------------
  Species    Type    Atomic    Atomic    Charge       Radii (Angs)     Library
                     Number     Mass       (e)     Cova   Ionic  VDW   Symbol
--------------------------------------------------------------------------------
    Fe       Core       26      55.85   0.000000   1.340  0.000  2.000          
    S        Core       16      32.07   0.000000   1.020  0.000  1.700          
--------------------------------------------------------------------------------


  Lattice summation method               =    Ewald          (3-D)
                                         =    Parry          (2-D)
                                         =    Saunders et al (1-D)
  Accuracy factor for lattice sums       =   12.000


  Time limit = Infinity

  ReaxFF: Bond order cutoffs: 

  Species number =    1   4.04098
  Species number =    2   4.04098



  Maximum range for interatomic potentials =    100000.000000 Angstroms

  ReaxFF forcefield to be used

  ReaxFF Coulomb cutoff =  10.0000 Ang
  ReaxFF VDW     cutoff =  10.0000 Ang
  ReaxFF H-bond  cutoff =   7.5000 Ang

  ReaxFF pairwise bond order       threshold = 0.00100000000000
  ReaxFF angle/torsion bond order  threshold = 0.00100000000000
  ReaxFF bond order double product threshold = 0.00000100000000
  ReaxFF bond order triple product threshold = 0.00000000100000
  ReaxFF hydrogen-bond bond order  threshold = 0.01000000000000


********************************************************************************
*  Output for configuration   1 : main-geometry                                *
********************************************************************************


  Increasing maxneigh to     26

  ReaxFF: Delta and Bond Order prime: 

   1  2.764770    2  0.0024    2  0.0024    2  0.0024    2  0.0024    3  0.0024    3  0.0024
    3  0.0024    3  0.0024    4  0.0024    4  0.0024    4  0.0024    4  0.0024
    5  0.2404    6  0.2404    7  0.0108    7  0.8651    8  0.8651    8  0.0108
    9  0.0108    9  0.8651   10  0.8651   10  0.0108   11  0.0108   11  0.8651
   12  0.8651   12  0.0108
   2  2.764770    1  0.0024    1  0.0024    1  0.0024    1  0.0024    3  0.0024    3  0.0024
    3  0.0024    3  0.0024    4  0.0024    4  0.0024    4  0.0024    4  0.0024
    5  0.8651    5  0.0108    6  0.0108    6  0.8651    7  0.2404    8  0.2404
    9  0.0108    9  0.8651   10  0.8651   10  0.0108   11  0.8651   11  0.0108
   12  0.0108   12  0.8651
   3  2.764770    1  0.0024    1  0.0024    1  0.0024    1  0.0024    2  0.0024    2  0.0024
    2  0.0024    2  0.0024    4  0.0024    4  0.0024    4  0.0024    4  0.0024
    5  0.8651    5  0.0108    6  0.0108    6  0.8651    7  0.8651    7  0.0108
    8  0.0108    8  0.8651    9  0.2404   10  0.2404   11  0.0108   11  0.8651
   12  0.8651   12  0.0108
   4  2.764770    1  0.0024    1  0.0024    1  0.0024    1  0.0024    2  0.0024    2  0.0024
    2  0.0024    2  0.0024    3  0.0024    3  0.0024    3  0.0024    3  0.0024
    5  0.8651    5  0.0108    6  0.0108    6  0.8651    7  0.0108    7  0.8651
    8  0.8651    8  0.0108    9  0.8651    9  0.0108   10  0.0108   10  0.8651
   11  0.2404   12  0.2404
   5 15.093572    1  0.2404    2  0.8651    2  0.0108    3  0.8651    3  0.0108    4  0.8651
    4  0.0108    6  1.0873    7  1.0097    7  1.0097    8  1.1800    8  1.1800
    9  1.0097    9  1.0097   10  1.1800   10  1.1800   11  1.0097   11  1.0097
   12  1.1800   12  1.1800
   6 15.093572    1  0.2404    2  0.0108    2  0.8651    3  0.0108    3  0.8651    4  0.0108
    4  0.8651    5  1.0873    7  1.1800    7  1.1800    8  1.0097    8  1.0097
    9  1.1800    9  1.1800   10  1.0097   10  1.0097   11  1.1800   11  1.1800
   12  1.0097   12  1.0097
   7 15.093572    1  0.0108    1  0.8651    2  0.2404    3  0.8651    3  0.0108    4  0.0108
    4  0.8651    5  1.0097    5  1.0097    6  1.1800    6  1.1800    8  1.0873
    9  1.0097    9  1.0097   10  1.1800   10  1.1800   11  1.0097   11  1.0097
   12  1.1800   12  1.1800
   8 15.093572    1  0.8651    1  0.0108    2  0.2404    3  0.0108    3  0.8651    4  0.8651
    4  0.0108    5  1.1800    5  1.1800    6  1.0097    6  1.0097    7  1.0873
    9  1.1800    9  1.1800   10  1.0097   10  1.0097   11  1.1800   11  1.1800
   12  1.0097   12  1.0097
   9 15.093572    1  0.0108    1  0.8651    2  0.0108    2  0.8651    3  0.2404    4  0.8651
    4  0.0108    5  1.0097    5  1.0097    6  1.1800    6  1.1800    7  1.0097
    7  1.0097    8  1.1800    8  1.1800   10  1.0873   11  1.0097   11  1.0097
   12  1.1800   12  1.1800
  10 15.093572    1  0.8651    1  0.0108    2  0.8651    2  0.0108    3  0.2404    4  0.0108
    4  0.8651    5  1.1800    5  1.1800    6  1.0097    6  1.0097    7  1.1800
    7  1.1800    8  1.0097    8  1.0097    9  1.0873   11  1.1800   11  1.1800
   12  1.0097   12  1.0097
  11 15.093572    1  0.0108    1  0.8651    2  0.8651    2  0.0108    3  0.0108    3  0.8651
    4  0.2404    5  1.0097    5  1.0097    6  1.1800    6  1.1800    7  1.0097
    7  1.0097    8  1.1800    8  1.1800    9  1.0097    9  1.0097   10  1.1800
   10  1.1800   12  1.0873
  12 15.093572    1  0.8651    1  0.0108    2  0.0108    2  0.8651    3  0.8651    3  0.0108
    4  0.2404    5  1.1800    5  1.1800    6  1.0097    6  1.0097    7  1.1800
    7  1.1800    8  1.0097    8  1.0097    9  1.1800    9  1.1800   10  1.0097
   10  1.0097   11  1.0873

  ReaxFF: Bond Order sigma prime: 

   1    2  0.0024    2  0.0024    2  0.0024    2  0.0024    3  0.0024    3  0.0024
    3  0.0024    3  0.0024    4  0.0024    4  0.0024    4  0.0024    4  0.0024
    5  0.2404    6  0.2404    7  0.0108    7  0.8651    8  0.8651    8  0.0108
    9  0.0108    9  0.8651   10  0.8651   10  0.0108   11  0.0108   11  0.8651
   12  0.8651   12  0.0108
   2    1  0.0024    1  0.0024    1  0.0024    1  0.0024    3  0.0024    3  0.0024
    3  0.0024    3  0.0024    4  0.0024    4  0.0024    4  0.0024    4  0.0024
    5  0.8651    5  0.0108    6  0.0108    6  0.8651    7  0.2404    8  0.2404
    9  0.0108    9  0.8651   10  0.8651   10  0.0108   11  0.8651   11  0.0108
   12  0.0108   12  0.8651
   3    1  0.0024    1  0.0024    1  0.0024    1  0.0024    2  0.0024    2  0.0024
    2  0.0024    2  0.0024    4  0.0024    4  0.0024    4  0.0024    4  0.0024
    5  0.8651    5  0.0108    6  0.0108    6  0.8651    7  0.8651    7  0.0108
    8  0.0108    8  0.8651    9  0.2404   10  0.2404   11  0.0108   11  0.8651
   12  0.8651   12  0.0108
   4    1  0.0024    1  0.0024    1  0.0024    1  0.0024    2  0.0024    2  0.0024
    2  0.0024    2  0.0024    3  0.0024    3  0.0024    3  0.0024    3  0.0024
    5  0.8651    5  0.0108    6  0.0108    6  0.8651    7  0.0108    7  0.8651
    8  0.8651    8  0.0108    9  0.8651    9  0.0108   10  0.0108   10  0.8651
   11  0.2404   12  0.2404
   5    1  0.2404    2  0.8651    2  0.0108    3  0.8651    3  0.0108    4  0.8651
    4  0.0108    6  0.0873    7  0.0097    7  0.0097    8  0.1800    8  0.1800
    9  0.0097    9  0.0097   10  0.1800   10  0.1800   11  0.0097   11  0.0097
   12  0.1800   12  0.1800
   6    1  0.2404    2  0.0108    2  0.8651    3  0.0108    3  0.8651    4  0.0108
    4  0.8651    5  0.0873    7  0.1800    7  0.1800    8  0.0097    8  0.0097
    9  0.1800    9  0.1800   10  0.0097   10  0.0097   11  0.1800   11  0.1800
   12  0.0097   12  0.0097
   7    1  0.0108    1  0.8651    2  0.2404    3  0.8651    3  0.0108    4  0.0108
    4  0.8651    5  0.0097    5  0.0097    6  0.1800    6  0.1800    8  0.0873
    9  0.0097    9  0.0097   10  0.1800   10  0.1800   11  0.0097   11  0.0097
   12  0.1800   12  0.1800
   8    1  0.8651    1  0.0108    2  0.2404    3  0.0108    3  0.8651    4  0.8651
    4  0.0108    5  0.1800    5  0.1800    6  0.0097    6  0.0097    7  0.0873
    9  0.1800    9  0.1800   10  0.0097   10  0.0097   11  0.1800   11  0.1800
   12  0.0097   12  0.0097
   9    1  0.0108    1  0.8651    2  0.0108    2  0.8651    3  0.2404    4  0.8651
    4  0.0108    5  0.0097    5  0.0097    6  0.1800    6  0.1800    7  0.0097
    7  0.0097    8  0.1800    8  0.1800   10  0.0873   11  0.0097   11  0.0097
   12  0.1800   12  0.1800
  10    1  0.8651    1  0.0108    2  0.8651    2  0.0108    3  0.2404    4  0.0108
    4  0.8651    5  0.1800    5  0.1800    6  0.0097    6  0.0097    7  0.1800
    7  0.1800    8  0.0097    8  0.0097    9  0.0873   11  0.1800   11  0.1800
   12  0.0097   12  0.0097
  11    1  0.0108    1  0.8651    2  0.8651    2  0.0108    3  0.0108    3  0.8651
    4  0.2404    5  0.0097    5  0.0097    6  0.1800    6  0.1800    7  0.0097
    7  0.0097    8  0.1800    8  0.1800    9  0.0097    9  0.0097   10  0.1800
   10  0.1800   12  0.0873
  12    1  0.8651    1  0.0108    2  0.0108    2  0.8651    3  0.8651    3  0.0108
    4  0.2404    5  0.1800    5  0.1800    6  0.0097    6  0.0097    7  0.1800
    7  0.1800    8  0.0097    8  0.0097    9  0.1800    9  0.1800   10  0.0097
   10  0.0097   11  0.0873

  ReaxFF: Bond Order pi prime: 

   1    2  0.0000    2  0.0000    2  0.0000    2  0.0000    3  0.0000    3  0.0000
    3  0.0000    3  0.0000    4  0.0000    4  0.0000    4  0.0000    4  0.0000
    5  0.0000    6  0.0000    7  0.0000    7  0.0000    8  0.0000    8  0.0000
    9  0.0000    9  0.0000   10  0.0000   10  0.0000   11  0.0000   11  0.0000
   12  0.0000   12  0.0000
   2    1  0.0000    1  0.0000    1  0.0000    1  0.0000    3  0.0000    3  0.0000
    3  0.0000    3  0.0000    4  0.0000    4  0.0000    4  0.0000    4  0.0000
    5  0.0000    5  0.0000    6  0.0000    6  0.0000    7  0.0000    8  0.0000
    9  0.0000    9  0.0000   10  0.0000   10  0.0000   11  0.0000   11  0.0000
   12  0.0000   12  0.0000
   3    1  0.0000    1  0.0000    1  0.0000    1  0.0000    2  0.0000    2  0.0000
    2  0.0000    2  0.0000    4  0.0000    4  0.0000    4  0.0000    4  0.0000
    5  0.0000    5  0.0000    6  0.0000    6  0.0000    7  0.0000    7  0.0000
    8  0.0000    8  0.0000    9  0.0000   10  0.0000   11  0.0000   11  0.0000
   12  0.0000   12  0.0000
   4    1  0.0000    1  0.0000    1  0.0000    1  0.0000    2  0.0000    2  0.0000
    2  0.0000    2  0.0000    3  0.0000    3  0.0000    3  0.0000    3  0.0000
    5  0.0000    5  0.0000    6  0.0000    6  0.0000    7  0.0000    7  0.0000
    8  0.0000    8  0.0000    9  0.0000    9  0.0000   10  0.0000   10  0.0000
   11  0.0000   12  0.0000
   5    1  0.0000    2  0.0000    2  0.0000    3  0.0000    3  0.0000    4  0.0000
    4  0.0000    6  0.0000    7  0.0000    7  0.0000    8  0.0000    8  0.0000
    9  0.0000    9  0.0000   10  0.0000   10  0.0000   11  0.0000   11  0.0000
   12  0.0000   12  0.0000
   6    1  0.0000    2  0.0000    2  0.0000    3  0.0000    3  0.0000    4  0.0000
    4  0.0000    5  0.0000    7  0.0000    7  0.0000    8  0.0000    8  0.0000
    9  0.0000    9  0.0000   10  0.0000   10  0.0000   11  0.0000   11  0.0000
   12  0.0000   12  0.0000
   7    1  0.0000    1  0.0000    2  0.0000    3  0.0000    3  0.0000    4  0.0000
    4  0.0000    5  0.0000    5  0.0000    6  0.0000    6  0.0000    8  0.0000
    9  0.0000    9  0.0000   10  0.0000   10  0.0000   11  0.0000   11  0.0000
   12  0.0000   12  0.0000
   8    1  0.0000    1  0.0000    2  0.0000    3  0.0000    3  0.0000    4  0.0000
    4  0.0000    5  0.0000    5  0.0000    6  0.0000    6  0.0000    7  0.0000
    9  0.0000    9  0.0000   10  0.0000   10  0.0000   11  0.0000   11  0.0000
   12  0.0000   12  0.0000
   9    1  0.0000    1  0.0000    2  0.0000    2  0.0000    3  0.0000    4  0.0000
    4  0.0000    5  0.0000    5  0.0000    6  0.0000    6  0.0000    7  0.0000
    7  0.0000    8  0.0000    8  0.0000   10  0.0000   11  0.0000   11  0.0000
   12  0.0000   12  0.0000
  10    1  0.0000    1  0.0000    2  0.0000    2  0.0000    3  0.0000    4  0.0000
    4  0.0000    5  0.0000    5  0.0000    6  0.0000    6  0.0000    7  0.0000
    7  0.0000    8  0.0000    8  0.0000    9  0.0000   11  0.0000   11  0.0000
   12  0.0000   12  0.0000
  11    1  0.0000    1  0.0000    2  0.0000    2  0.0000    3  0.0000    3  0.0000
    4  0.0000    5  0.0000    5  0.0000    6  0.0000    6  0.0000    7  0.0000
    7  0.0000    8  0.0000    8  0.0000    9  0.0000    9  0.0000   10  0.0000
   10  0.0000   12  0.0000
  12    1  0.0000    1  0.0000    2  0.0000    2  0.0000    3  0.0000    3  0.0000
    4  0.0000    5  0.0000    5  0.0000    6  0.0000    6  0.0000    7  0.0000
    7  0.0000    8  0.0000    8  0.0000    9  0.0000    9  0.0000   10  0.0000
   10  0.0000   11  0.0000

  ReaxFF: Bond Order pi-pi prime: 

   1    2  0.0000    2  0.0000    2  0.0000    2  0.0000    3  0.0000    3  0.0000
    3  0.0000    3  0.0000    4  0.0000    4  0.0000    4  0.0000    4  0.0000
    5  0.0000    6  0.0000    7  0.0000    7  0.0000    8  0.0000    8  0.0000
    9  0.0000    9  0.0000   10  0.0000   10  0.0000   11  0.0000   11  0.0000
   12  0.0000   12  0.0000
   2    1  0.0000    1  0.0000    1  0.0000    1  0.0000    3  0.0000    3  0.0000
    3  0.0000    3  0.0000    4  0.0000    4  0.0000    4  0.0000    4  0.0000
    5  0.0000    5  0.0000    6  0.0000    6  0.0000    7  0.0000    8  0.0000
    9  0.0000    9  0.0000   10  0.0000   10  0.0000   11  0.0000   11  0.0000
   12  0.0000   12  0.0000
   3    1  0.0000    1  0.0000    1  0.0000    1  0.0000    2  0.0000    2  0.0000
    2  0.0000    2  0.0000    4  0.0000    4  0.0000    4  0.0000    4  0.0000
    5  0.0000    5  0.0000    6  0.0000    6  0.0000    7  0.0000    7  0.0000
    8  0.0000    8  0.0000    9  0.0000   10  0.0000   11  0.0000   11  0.0000
   12  0.0000   12  0.0000
   4    1  0.0000    1  0.0000    1  0.0000    1  0.0000    2  0.0000    2  0.0000
    2  0.0000    2  0.0000    3  0.0000    3  0.0000    3  0.0000    3  0.0000
    5  0.0000    5  0.0000    6  0.0000    6  0.0000    7  0.0000    7  0.0000
    8  0.0000    8  0.0000    9  0.0000    9  0.0000   10  0.0000   10  0.0000
   11  0.0000   12  0.0000
   5    1  0.0000    2  0.0000    2  0.0000    3  0.0000    3  0.0000    4  0.0000
    4  0.0000    6  1.0000    7  1.0000    7  1.0000    8  1.0000    8  1.0000
    9  1.0000    9  1.0000   10  1.0000   10  1.0000   11  1.0000   11  1.0000
   12  1.0000   12  1.0000
   6    1  0.0000    2  0.0000    2  0.0000    3  0.0000    3  0.0000    4  0.0000
    4  0.0000    5  1.0000    7  1.0000    7  1.0000    8  1.0000    8  1.0000
    9  1.0000    9  1.0000   10  1.0000   10  1.0000   11  1.0000   11  1.0000
   12  1.0000   12  1.0000
   7    1  0.0000    1  0.0000    2  0.0000    3  0.0000    3  0.0000    4  0.0000
    4  0.0000    5  1.0000    5  1.0000    6  1.0000    6  1.0000    8  1.0000
    9  1.0000    9  1.0000   10  1.0000   10  1.0000   11  1.0000   11  1.0000
   12  1.0000   12  1.0000
   8    1  0.0000    1  0.0000    2  0.0000    3  0.0000    3  0.0000    4  0.0000
    4  0.0000    5  1.0000    5  1.0000    6  1.0000    6  1.0000    7  1.0000
    9  1.0000    9  1.0000   10  1.0000   10  1.0000   11  1.0000   11  1.0000
   12  1.0000   12  1.0000
   9    1  0.0000    1  0.0000    2  0.0000    2  0.0000    3  0.0000    4  0.0000
    4  0.0000    5  1.0000    5  1.0000    6  1.0000    6  1.0000    7  1.0000
    7  1.0000    8  1.0000    8  1.0000   10  1.0000   11  1.0000   11  1.0000
   12  1.0000   12  1.0000
  10    1  0.0000    1  0.0000    2  0.0000    2  0.0000    3  0.0000    4  0.0000
    4  0.0000    5  1.0000    5  1.0000    6  1.0000    6  1.0000    7  1.0000
    7  1.0000    8  1.0000    8  1.0000    9  1.0000   11  1.0000   11  1.0000
   12  1.0000   12  1.0000
  11    1  0.0000    1  0.0000    2  0.0000    2  0.0000    3  0.0000    3  0.0000
    4  0.0000    5  1.0000    5  1.0000    6  1.0000    6  1.0000    7  1.0000
    7  1.0000    8  1.0000    8  1.0000    9  1.0000    9  1.0000   10  1.0000
   10  1.0000   12  1.0000
  12    1  0.0000    1  0.0000    2  0.0000    2  0.0000    3  0.0000    3  0.0000
    4  0.0000    5  1.0000    5  1.0000    6  1.0000    6  1.0000    7  1.0000
    7  1.0000    8  1.0000    8  1.0000    9  1.0000    9  1.0000   10  1.0000
   10  1.0000   11  1.0000



  ReaxFF: Delta and Bond Order: 

   1  2.764770    2  0.0024    2  0.0024    2  0.0024    2  0.0024    3  0.0024    3  0.0024
    3  0.0024    3  0.0024    4  0.0024    4  0.0024    4  0.0024    4  0.0024
    5  0.2404    6  0.2404    7  0.0108    7  0.8651    8  0.8651    8  0.0108
    9  0.0108    9  0.8651   10  0.8651   10  0.0108   11  0.0108   11  0.8651
   12  0.8651   12  0.0108
   2  2.764770    1  0.0024    1  0.0024    1  0.0024    1  0.0024    3  0.0024    3  0.0024
    3  0.0024    3  0.0024    4  0.0024    4  0.0024    4  0.0024    4  0.0024
    5  0.8651    5  0.0108    6  0.0108    6  0.8651    7  0.2404    8  0.2404
    9  0.0108    9  0.8651   10  0.8651   10  0.0108   11  0.8651   11  0.0108
   12  0.0108   12  0.8651
   3  2.764770    1  0.0024    1  0.0024    1  0.0024    1  0.0024    2  0.0024    2  0.0024
    2  0.0024    2  0.0024    4  0.0024    4  0.0024    4  0.0024    4  0.0024
    5  0.8651    5  0.0108    6  0.0108    6  0.8651    7  0.8651    7  0.0108
    8  0.0108    8  0.8651    9  0.2404   10  0.2404   11  0.0108   11  0.8651
   12  0.8651   12  0.0108
   4  2.764770    1  0.0024    1  0.0024    1  0.0024    1  0.0024    2  0.0024    2  0.0024
    2  0.0024    2  0.0024    3  0.0024    3  0.0024    3  0.0024    3  0.0024
    5  0.8651    5  0.0108    6  0.0108    6  0.8651    7  0.0108    7  0.8651
    8  0.8651    8  0.0108    9  0.8651    9  0.0108   10  0.0108   10  0.8651
   11  0.2404   12  0.2404
   5  2.532591    1  0.2404    2  0.8651    2  0.0108    3  0.8651    3  0.0108    4  0.8651
    4  0.0108    6  0.1272    7  0.1181    7  0.1181    8  0.1381    8  0.1381
    9  0.1181    9  0.1181   10  0.1381   10  0.1381   11  0.1181   11  0.1181
   12  0.1381   12  0.1381
   6  2.532591    1  0.2404    2  0.0108    2  0.8651    3  0.0108    3  0.8651    4  0.0108
    4  0.8651    5  0.1272    7  0.1381    7  0.1381    8  0.1181    8  0.1181
    9  0.1381    9  0.1381   10  0.1181   10  0.1181   11  0.1381   11  0.1381
   12  0.1181   12  0.1181
   7  2.532591    1  0.0108    1  0.8651    2  0.2404    3  0.8651    3  0.0108    4  0.0108
    4  0.8651    5  0.1181    5  0.1181    6  0.1381    6  0.1381    8  0.1272
    9  0.1181    9  0.1181   10  0.1381   10  0.1381   11  0.1181   11  0.1181
   12  0.1381   12  0.1381
   8  2.532591    1  0.8651    1  0.0108    2  0.2404    3  0.0108    3  0.8651    4  0.8651
    4  0.0108    5  0.1381    5  0.1381    6  0.1181    6  0.1181    7  0.1272
    9  0.1381    9  0.1381   10  0.1181   10  0.1181   11  0.1381   11  0.1381
   12  0.1181   12  0.1181
   9  2.532591    1  0.0108    1  0.8651    2  0.0108    2  0.8651    3  0.2404    4  0.8651
    4  0.0108    5  0.1181    5  0.1181    6  0.1381    6  0.1381    7  0.1181
    7  0.1181    8  0.1381    8  0.1381   10  0.1272   11  0.1181   11  0.1181
   12  0.1381   12  0.1381
  10  2.532591    1  0.8651    1  0.0108    2  0.8651    2  0.0108    3  0.2404    4  0.0108
    4  0.8651    5  0.1381    5  0.1381    6  0.1181    6  0.1181    7  0.1381
    7  0.1381    8  0.1181    8  0.1181    9  0.1272   11  0.1381   11  0.1381
   12  0.1181   12  0.1181
  11  2.532591    1  0.0108    1  0.8651    2  0.8651    2  0.0108    3  0.0108    3  0.8651
    4  0.2404    5  0.1181    5  0.1181    6  0.1381    6  0.1381    7  0.1181
    7  0.1181    8  0.1381    8  0.1381    9  0.1181    9  0.1181   10  0.1381
   10  0.1381   12  0.1272
  12  2.532591    1  0.8651    1  0.0108    2  0.0108    2  0.8651    3  0.8651    3  0.0108
    4  0.2404    5  0.1381    5  0.1381    6  0.1181    6  0.1181    7  0.1381
    7  0.1381    8  0.1181    8  0.1181    9  0.1381    9  0.1381   10  0.1181
   10  0.1181   11  0.1272

  ReaxFF: Delta lone pair: 

   1  1.000000
   2  1.000000
   3  1.000000
   4  1.000000
   5  1.822217
   6  1.822217
   7  1.822217
   8  1.822217
   9  1.822217
  10  1.822217
  11  1.822217
  12  1.822217


  ReaxFF : Energy contributions: 

  E(bond)     =     -87.05501891 eV =    -2007.5235581 kcal
  E(bpen)     =       0.00000000 eV =        0.0000000 kcal
  E(lonepair) =       2.21216459 eV =       51.0134003 kcal
  E(over)     =      16.63082435 eV =      383.5134619 kcal
  E(under)    =       0.00000000 eV =        0.0000000 kcal
  E(val)      =      19.44993110 eV =      448.5231912 kcal
  E(pen)      =       0.00000000 eV =        0.0000000 kcal
  E(coa)      =       0.00000000 eV =        0.0000000 kcal
  E(tors)     =      36.28176260 eV =      836.6719584 kcal
  E(conj)     =       0.00000000 eV =        0.0000000 kcal
  E(hb)       =       0.00000000 eV =        0.0000000 kcal
  E(vdw)      =       6.41369507 eV =      147.9023739 kcal
  E(coulomb)  =      -3.34422152 eV =      -77.1190860 kcal
  E(self)     =      -0.10608718 eV =       -2.4464129 kcal

  Components of energy : 

--------------------------------------------------------------------------------
  Interatomic potentials     =           0.00000000 eV    
  ReaxFF force field         =          -9.51694989 eV    
  Monopole - monopole (real) =           0.00000000 eV    
  Monopole - monopole (recip)=           0.00000000 eV    
  Monopole - monopole (total)=           0.00000000 eV    
--------------------------------------------------------------------------------
  Total lattice energy       =          -9.51694989 eV    
--------------------------------------------------------------------------------
  Total lattice energy       =            -918.2402 kJ/(mole unit cells)
--------------------------------------------------------------------------------


  Number of variables =       39

  Maximum number of calculations  =         50000
  Maximum Hessian update interval =            10
  Maximum step size               =   1.000000000
  Maximum parameter tolerance     =   0.000010000
  Maximum function  tolerance     =   0.000010000
  Maximum gradient  tolerance     =   0.001000000
  Maximum gradient  component     =   0.010000000

  Symmetry not applied to optimisation

  Cell parameters to be optimised using strains

  Newton-Raphson optimiser to be used

  BFGS hessian update to be used

  Start of bulk optimisation :


  ReaxFF: Delta and Bond Order prime: 

   1  2.764770    2  0.0024    2  0.0024    2  0.0024    2  0.0024    3  0.0024    3  0.0024
    3  0.0024    3  0.0024    4  0.0024    4  0.0024    4  0.0024    4  0.0024
    5  0.2404    6  0.2404    7  0.0108    7  0.8651    8  0.8651    8  0.0108
    9  0.0108    9  0.8651   10  0.8651   10  0.0108   11  0.0108   11  0.8651
   12  0.8651   12  0.0108
   2  2.764770    1  0.0024    1  0.0024    1  0.0024    1  0.0024    3  0.0024    3  0.0024
    3  0.0024    3  0.0024    4  0.0024    4  0.0024    4  0.0024    4  0.0024
    5  0.8651    5  0.0108    6  0.0108    6  0.8651    7  0.2404    8  0.2404
    9  0.0108    9  0.8651   10  0.8651   10  0.0108   11  0.8651   11  0.0108
   12  0.0108   12  0.8651
   3  2.764770    1  0.0024    1  0.0024    1  0.0024    1  0.0024    2  0.0024    2  0.0024
    2  0.0024    2  0.0024    4  0.0024    4  0.0024    4  0.0024    4  0.0024
    5  0.8651    5  0.0108    6  0.0108    6  0.8651    7  0.8651    7  0.0108
    8  0.0108    8  0.8651    9  0.2404   10  0.2404   11  0.0108   11  0.8651
   12  0.8651   12  0.0108
   4  2.764770    1  0.0024    1  0.0024    1  0.0024    1  0.0024    2  0.0024    2  0.0024
    2  0.0024    2  0.0024    3  0.0024    3  0.0024    3  0.0024    3  0.0024
    5  0.8651    5  0.0108    6  0.0108    6  0.8651    7  0.0108    7  0.8651
    8  0.8651    8  0.0108    9  0.8651    9  0.0108   10  0.0108   10  0.8651
   11  0.2404   12  0.2404
   5 15.093572    1  0.2404    2  0.8651    2  0.0108    3  0.8651    3  0.0108    4  0.8651
    4  0.0108    6  1.0873    7  1.0097    7  1.0097    8  1.1800    8  1.1800
    9  1.0097    9  1.0097   10  1.1800   10  1.1800   11  1.0097   11  1.0097
   12  1.1800   12  1.1800
   6 15.093572    1  0.2404    2  0.0108    2  0.8651    3  0.0108    3  0.8651    4  0.0108
    4  0.8651    5  1.0873    7  1.1800    7  1.1800    8  1.0097    8  1.0097
    9  1.1800    9  1.1800   10  1.0097   10  1.0097   11  1.1800   11  1.1800
   12  1.0097   12  1.0097
   7 15.093572    1  0.0108    1  0.8651    2  0.2404    3  0.8651    3  0.0108    4  0.0108
    4  0.8651    5  1.0097    5  1.0097    6  1.1800    6  1.1800    8  1.0873
    9  1.0097    9  1.0097   10  1.1800   10  1.1800   11  1.0097   11  1.0097
   12  1.1800   12  1.1800
   8 15.093572    1  0.8651    1  0.0108    2  0.2404    3  0.0108    3  0.8651    4  0.8651
    4  0.0108    5  1.1800    5  1.1800    6  1.0097    6  1.0097    7  1.0873
    9  1.1800    9  1.1800   10  1.0097   10  1.0097   11  1.1800   11  1.1800
   12  1.0097   12  1.0097
   9 15.093572    1  0.0108    1  0.8651    2  0.0108    2  0.8651    3  0.2404    4  0.8651
    4  0.0108    5  1.0097    5  1.0097    6  1.1800    6  1.1800    7  1.0097
    7  1.0097    8  1.1800    8  1.1800   10  1.0873   11  1.0097   11  1.0097
   12  1.1800   12  1.1800
  10 15.093572    1  0.8651    1  0.0108    2  0.8651    2  0.0108    3  0.2404    4  0.0108
    4  0.8651    5  1.1800    5  1.1800    6  1.0097    6  1.0097    7  1.1800
    7  1.1800    8  1.0097    8  1.0097    9  1.0873   11  1.1800   11  1.1800
   12  1.0097   12  1.0097
  11 15.093572    1  0.0108    1  0.8651    2  0.8651    2  0.0108    3  0.0108    3  0.8651
    4  0.2404    5  1.0097    5  1.0097    6  1.1800    6  1.1800    7  1.0097
    7  1.0097    8  1.1800    8  1.1800    9  1.0097    9  1.0097   10  1.1800
   10  1.1800   12  1.0873
  12 15.093572    1  0.8651    1  0.0108    2  0.0108    2  0.8651    3  0.8651    3  0.0108
    4  0.2404    5  1.1800    5  1.1800    6  1.0097    6  1.0097    7  1.1800
    7  1.1800    8  1.0097    8  1.0097    9  1.1800    9  1.1800   10  1.0097
   10  1.0097   11  1.0873

  ReaxFF: Bond Order sigma prime: 

   1    2  0.0024    2  0.0024    2  0.0024    2  0.0024    3  0.0024    3  0.0024
    3  0.0024    3  0.0024    4  0.0024    4  0.0024    4  0.0024    4  0.0024
    5  0.2404    6  0.2404    7  0.0108    7  0.8651    8  0.8651    8  0.0108
    9  0.0108    9  0.8651   10  0.8651   10  0.0108   11  0.0108   11  0.8651
   12  0.8651   12  0.0108
   2    1  0.0024    1  0.0024    1  0.0024    1  0.0024    3  0.0024    3  0.0024
    3  0.0024    3  0.0024    4  0.0024    4  0.0024    4  0.0024    4  0.0024
    5  0.8651    5  0.0108    6  0.0108    6  0.8651    7  0.2404    8  0.2404
    9  0.0108    9  0.8651   10  0.8651   10  0.0108   11  0.8651   11  0.0108
   12  0.0108   12  0.8651
   3    1  0.0024    1  0.0024    1  0.0024    1  0.0024    2  0.0024    2  0.0024
    2  0.0024    2  0.0024    4  0.0024    4  0.0024    4  0.0024    4  0.0024
    5  0.8651    5  0.0108    6  0.0108    6  0.8651    7  0.8651    7  0.0108
    8  0.0108    8  0.8651    9  0.2404   10  0.2404   11  0.0108   11  0.8651
   12  0.8651   12  0.0108
   4    1  0.0024    1  0.0024    1  0.0024    1  0.0024    2  0.0024    2  0.0024
    2  0.0024    2  0.0024    3  0.0024    3  0.0024    3  0.0024    3  0.0024
    5  0.8651    5  0.0108    6  0.0108    6  0.8651    7  0.0108    7  0.8651
    8  0.8651    8  0.0108    9  0.8651    9  0.0108   10  0.0108   10  0.8651
   11  0.2404   12  0.2404
   5    1  0.2404    2  0.8651    2  0.0108    3  0.8651    3  0.0108    4  0.8651
    4  0.0108    6  0.0873    7  0.0097    7  0.0097    8  0.1800    8  0.1800
    9  0.0097    9  0.0097   10  0.1800   10  0.1800   11  0.0097   11  0.0097
   12  0.1800   12  0.1800
   6    1  0.2404    2  0.0108    2  0.8651    3  0.0108    3  0.8651    4  0.0108
    4  0.8651    5  0.0873    7  0.1800    7  0.1800    8  0.0097    8  0.0097
    9  0.1800    9  0.1800   10  0.0097   10  0.0097   11  0.1800   11  0.1800
   12  0.0097   12  0.0097
   7    1  0.0108    1  0.8651    2  0.2404    3  0.8651    3  0.0108    4  0.0108
    4  0.8651    5  0.0097    5  0.0097    6  0.1800    6  0.1800    8  0.0873
    9  0.0097    9  0.0097   10  0.1800   10  0.1800   11  0.0097   11  0.0097
   12  0.1800   12  0.1800
   8    1  0.8651    1  0.0108    2  0.2404    3  0.0108    3  0.8651    4  0.8651
    4  0.0108    5  0.1800    5  0.1800    6  0.0097    6  0.0097    7  0.0873
    9  0.1800    9  0.1800   10  0.0097   10  0.0097   11  0.1800   11  0.1800
   12  0.0097   12  0.0097
   9    1  0.0108    1  0.8651    2  0.0108    2  0.8651    3  0.2404    4  0.8651
    4  0.0108    5  0.0097    5  0.0097    6  0.1800    6  0.1800    7  0.0097
    7  0.0097    8  0.1800    8  0.1800   10  0.0873   11  0.0097   11  0.0097
   12  0.1800   12  0.1800
  10    1  0.8651    1  0.0108    2  0.8651    2  0.0108    3  0.2404    4  0.0108
    4  0.8651    5  0.1800    5  0.1800    6  0.0097    6  0.0097    7  0.1800
    7  0.1800    8  0.0097    8  0.0097    9  0.0873   11  0.1800   11  0.1800
   12  0.0097   12  0.0097
  11    1  0.0108    1  0.8651    2  0.8651    2  0.0108    3  0.0108    3  0.8651
    4  0.2404    5  0.0097    5  0.0097    6  0.1800    6  0.1800    7  0.0097
    7  0.0097    8  0.1800    8  0.1800    9  0.0097    9  0.0097   10  0.1800
   10  0.1800   12  0.0873
  12    1  0.8651    1  0.0108    2  0.0108    2  0.8651    3  0.8651    3  0.0108
    4  0.2404    5  0.1800    5  0.1800    6  0.0097    6  0.0097    7  0.1800
    7  0.1800    8  0.0097    8  0.0097    9  0.1800    9  0.1800   10  0.0097
   10  0.0097   11  0.0873

  ReaxFF: Bond Order pi prime: 

   1    2  0.0000    2  0.0000    2  0.0000    2  0.0000    3  0.0000    3  0.0000
    3  0.0000    3  0.0000    4  0.0000    4  0.0000    4  0.0000    4  0.0000
    5  0.0000    6  0.0000    7  0.0000    7  0.0000    8  0.0000    8  0.0000
    9  0.0000    9  0.0000   10  0.0000   10  0.0000   11  0.0000   11  0.0000
   12  0.0000   12  0.0000
   2    1  0.0000    1  0.0000    1  0.0000    1  0.0000    3  0.0000    3  0.0000
    3  0.0000    3  0.0000    4  0.0000    4  0.0000    4  0.0000    4  0.0000
    5  0.0000    5  0.0000    6  0.0000    6  0.0000    7  0.0000    8  0.0000
    9  0.0000    9  0.0000   10  0.0000   10  0.0000   11  0.0000   11  0.0000
   12  0.0000   12  0.0000
   3    1  0.0000    1  0.0000    1  0.0000    1  0.0000    2  0.0000    2  0.0000
    2  0.0000    2  0.0000    4  0.0000    4  0.0000    4  0.0000    4  0.0000
    5  0.0000    5  0.0000    6  0.0000    6  0.0000    7  0.0000    7  0.0000
    8  0.0000    8  0.0000    9  0.0000   10  0.0000   11  0.0000   11  0.0000
   12  0.0000   12  0.0000
   4    1  0.0000    1  0.0000    1  0.0000    1  0.0000    2  0.0000    2  0.0000
    2  0.0000    2  0.0000    3  0.0000    3  0.0000    3  0.0000    3  0.0000
    5  0.0000    5  0.0000    6  0.0000    6  0.0000    7  0.0000    7  0.0000
    8  0.0000    8  0.0000    9  0.0000    9  0.0000   10  0.0000   10  0.0000
   11  0.0000   12  0.0000
   5    1  0.0000    2  0.0000    2  0.0000    3  0.0000    3  0.0000    4  0.0000
    4  0.0000    6  0.0000    7  0.0000    7  0.0000    8  0.0000    8  0.0000
    9  0.0000    9  0.0000   10  0.0000   10  0.0000   11  0.0000   11  0.0000
   12  0.0000   12  0.0000
   6    1  0.0000    2  0.0000    2  0.0000    3  0.0000    3  0.0000    4  0.0000
    4  0.0000    5  0.0000    7  0.0000    7  0.0000    8  0.0000    8  0.0000
    9  0.0000    9  0.0000   10  0.0000   10  0.0000   11  0.0000   11  0.0000
   12  0.0000   12  0.0000
   7    1  0.0000    1  0.0000    2  0.0000    3  0.0000    3  0.0000    4  0.0000
    4  0.0000    5  0.0000    5  0.0000    6  0.0000    6  0.0000    8  0.0000
    9  0.0000    9  0.0000   10  0.0000   10  0.0000   11  0.0000   11  0.0000
   12  0.0000   12  0.0000
   8    1  0.0000    1  0.0000    2  0.0000    3  0.0000    3  0.0000    4  0.0000
    4  0.0000    5  0.0000    5  0.0000    6  0.0000    6  0.0000    7  0.0000
    9  0.0000    9  0.0000   10  0.0000   10  0.0000   11  0.0000   11  0.0000
   12  0.0000   12  0.0000
   9    1  0.0000    1  0.0000    2  0.0000    2  0.0000    3  0.0000    4  0.0000
    4  0.0000    5  0.0000    5  0.0000    6  0.0000    6  0.0000    7  0.0000
    7  0.0000    8  0.0000    8  0.0000   10  0.0000   11  0.0000   11  0.0000
   12  0.0000   12  0.0000
  10    1  0.0000    1  0.0000    2  0.0000    2  0.0000    3  0.0000    4  0.0000
    4  0.0000    5  0.0000    5  0.0000    6  0.0000    6  0.0000    7  0.0000
    7  0.0000    8  0.0000    8  0.0000    9  0.0000   11  0.0000   11  0.0000
   12  0.0000   12  0.0000
  11    1  0.0000    1  0.0000    2  0.0000    2  0.0000    3  0.0000    3  0.0000
    4  0.0000    5  0.0000    5  0.0000    6  0.0000    6  0.0000    7  0.0000
    7  0.0000    8  0.0000    8  0.0000    9  0.0000    9  0.0000   10  0.0000
   10  0.0000   12  0.0000
  12    1  0.0000    1  0.0000    2  0.0000    2  0.0000    3  0.0000    3  0.0000
    4  0.0000    5  0.0000    5  0.0000    6  0.0000    6  0.0000    7  0.0000
    7  0.0000    8  0.0000    8  0.0000    9  0.0000    9  0.0000   10  0.0000
   10  0.0000   11  0.0000

  ReaxFF: Bond Order pi-pi prime: 

   1    2  0.0000    2  0.0000    2  0.0000    2  0.0000    3  0.0000    3  0.0000
    3  0.0000    3  0.0000    4  0.0000    4  0.0000    4  0.0000    4  0.0000
    5  0.0000    6  0.0000    7  0.0000    7  0.0000    8  0.0000    8  0.0000
    9  0.0000    9  0.0000   10  0.0000   10  0.0000   11  0.0000   11  0.0000
   12  0.0000   12  0.0000
   2    1  0.0000    1  0.0000    1  0.0000    1  0.0000    3  0.0000    3  0.0000
    3  0.0000    3  0.0000    4  0.0000    4  0.0000    4  0.0000    4  0.0000
    5  0.0000    5  0.0000    6  0.0000    6  0.0000    7  0.0000    8  0.0000
    9  0.0000    9  0.0000   10  0.0000   10  0.0000   11  0.0000   11  0.0000
   12  0.0000   12  0.0000
   3    1  0.0000    1  0.0000    1  0.0000    1  0.0000    2  0.0000    2  0.0000
    2  0.0000    2  0.0000    4  0.0000    4  0.0000    4  0.0000    4  0.0000
    5  0.0000    5  0.0000    6  0.0000    6  0.0000    7  0.0000    7  0.0000
    8  0.0000    8  0.0000    9  0.0000   10  0.0000   11  0.0000   11  0.0000
   12  0.0000   12  0.0000
   4    1  0.0000    1  0.0000    1  0.0000    1  0.0000    2  0.0000    2  0.0000
    2  0.0000    2  0.0000    3  0.0000    3  0.0000    3  0.0000    3  0.0000
    5  0.0000    5  0.0000    6  0.0000    6  0.0000    7  0.0000    7  0.0000
    8  0.0000    8  0.0000    9  0.0000    9  0.0000   10  0.0000   10  0.0000
   11  0.0000   12  0.0000
   5    1  0.0000    2  0.0000    2  0.0000    3  0.0000    3  0.0000    4  0.0000
    4  0.0000    6  1.0000    7  1.0000    7  1.0000    8  1.0000    8  1.0000
    9  1.0000    9  1.0000   10  1.0000   10  1.0000   11  1.0000   11  1.0000
   12  1.0000   12  1.0000
   6    1  0.0000    2  0.0000    2  0.0000    3  0.0000    3  0.0000    4  0.0000
    4  0.0000    5  1.0000    7  1.0000    7  1.0000    8  1.0000    8  1.0000
    9  1.0000    9  1.0000   10  1.0000   10  1.0000   11  1.0000   11  1.0000
   12  1.0000   12  1.0000
   7    1  0.0000    1  0.0000    2  0.0000    3  0.0000    3  0.0000    4  0.0000
    4  0.0000    5  1.0000    5  1.0000    6  1.0000    6  1.0000    8  1.0000
    9  1.0000    9  1.0000   10  1.0000   10  1.0000   11  1.0000   11  1.0000
   12  1.0000   12  1.0000
   8    1  0.0000    1  0.0000    2  0.0000    3  0.0000    3  0.0000    4  0.0000
    4  0.0000    5  1.0000    5  1.0000    6  1.0000    6  1.0000    7  1.0000
    9  1.0000    9  1.0000   10  1.0000   10  1.0000   11  1.0000   11  1.0000
   12  1.0000   12  1.0000
   9    1  0.0000    1  0.0000    2  0.0000    2  0.0000    3  0.0000    4  0.0000
    4  0.0000    5  1.0000    5  1.0000    6  1.0000    6  1.0000    7  1.0000
    7  1.0000    8  1.0000    8  1.0000   10  1.0000   11  1.0000   11  1.0000
   12  1.0000   12  1.0000
  10    1  0.0000    1  0.0000    2  0.0000    2  0.0000    3  0.0000    4  0.0000
    4  0.0000    5  1.0000    5  1.0000    6  1.0000    6  1.0000    7  1.0000
    7  1.0000    8  1.0000    8  1.0000    9  1.0000   11  1.0000   11  1.0000
   12  1.0000   12  1.0000
  11    1  0.0000    1  0.0000    2  0.0000    2  0.0000    3  0.0000    3  0.0000
    4  0.0000    5  1.0000    5  1.0000    6  1.0000    6  1.0000    7  1.0000
    7  1.0000    8  1.0000    8  1.0000    9  1.0000    9  1.0000   10  1.0000
   10  1.0000   12  1.0000
  12    1  0.0000    1  0.0000    2  0.0000    2  0.0000    3  0.0000    3  0.0000
    4  0.0000    5  1.0000    5  1.0000    6  1.0000    6  1.0000    7  1.0000
    7  1.0000    8  1.0000    8  1.0000    9  1.0000    9  1.0000   10  1.0000
   10  1.0000   11  1.0000



  ReaxFF: Delta and Bond Order: 

   1  2.764770    2  0.0024    2  0.0024    2  0.0024    2  0.0024    3  0.0024    3  0.0024
    3  0.0024    3  0.0024    4  0.0024    4  0.0024    4  0.0024    4  0.0024
    5  0.2404    6  0.2404    7  0.0108    7  0.8651    8  0.8651    8  0.0108
    9  0.0108    9  0.8651   10  0.8651   10  0.0108   11  0.0108   11  0.8651
   12  0.8651   12  0.0108
   2  2.764770    1  0.0024    1  0.0024    1  0.0024    1  0.0024    3  0.0024    3  0.0024
    3  0.0024    3  0.0024    4  0.0024    4  0.0024    4  0.0024    4  0.0024
    5  0.8651    5  0.0108    6  0.0108    6  0.8651    7  0.2404    8  0.2404
    9  0.0108    9  0.8651   10  0.8651   10  0.0108   11  0.8651   11  0.0108
   12  0.0108   12  0.8651
   3  2.764770    1  0.0024    1  0.0024    1  0.0024    1  0.0024    2  0.0024    2  0.0024
    2  0.0024    2  0.0024    4  0.0024    4  0.0024    4  0.0024    4  0.0024
    5  0.8651    5  0.0108    6  0.0108    6  0.8651    7  0.8651    7  0.0108
    8  0.0108    8  0.8651    9  0.2404   10  0.2404   11  0.0108   11  0.8651
   12  0.8651   12  0.0108
   4  2.764770    1  0.0024    1  0.0024    1  0.0024    1  0.0024    2  0.0024    2  0.0024
    2  0.0024    2  0.0024    3  0.0024    3  0.0024    3  0.0024    3  0.0024
    5  0.8651    5  0.0108    6  0.0108    6  0.8651    7  0.0108    7  0.8651
    8  0.8651    8  0.0108    9  0.8651    9  0.0108   10  0.0108   10  0.8651
   11  0.2404   12  0.2404
   5  2.532591    1  0.2404    2  0.8651    2  0.0108    3  0.8651    3  0.0108    4  0.8651
    4  0.0108    6  0.1272    7  0.1181    7  0.1181    8  0.1381    8  0.1381
    9  0.1181    9  0.1181   10  0.1381   10  0.1381   11  0.1181   11  0.1181
   12  0.1381   12  0.1381
   6  2.532591    1  0.2404    2  0.0108    2  0.8651    3  0.0108    3  0.8651    4  0.0108
    4  0.8651    5  0.1272    7  0.1381    7  0.1381    8  0.1181    8  0.1181
    9  0.1381    9  0.1381   10  0.1181   10  0.1181   11  0.1381   11  0.1381
   12  0.1181   12  0.1181
   7  2.532591    1  0.0108    1  0.8651    2  0.2404    3  0.8651    3  0.0108    4  0.0108
    4  0.8651    5  0.1181    5  0.1181    6  0.1381    6  0.1381    8  0.1272
    9  0.1181    9  0.1181   10  0.1381   10  0.1381   11  0.1181   11  0.1181
   12  0.1381   12  0.1381
   8  2.532591    1  0.8651    1  0.0108    2  0.2404    3  0.0108    3  0.8651    4  0.8651
    4  0.0108    5  0.1381    5  0.1381    6  0.1181    6  0.1181    7  0.1272
    9  0.1381    9  0.1381   10  0.1181   10  0.1181   11  0.1381   11  0.1381
   12  0.1181   12  0.1181
   9  2.532591    1  0.0108    1  0.8651    2  0.0108    2  0.8651    3  0.2404    4  0.8651
    4  0.0108    5  0.1181    5  0.1181    6  0.1381    6  0.1381    7  0.1181
    7  0.1181    8  0.1381    8  0.1381   10  0.1272   11  0.1181   11  0.1181
   12  0.1381   12  0.1381
  10  2.532591    1  0.8651    1  0.0108    2  0.8651    2  0.0108    3  0.2404    4  0.0108
    4  0.8651    5  0.1381    5  0.1381    6  0.1181    6  0.1181    7  0.1381
    7  0.1381    8  0.1181    8  0.1181    9  0.1272   11  0.1381   11  0.1381
   12  0.1181   12  0.1181
  11  2.532591    1  0.0108    1  0.8651    2  0.8651    2  0.0108    3  0.0108    3  0.8651
    4  0.2404    5  0.1181    5  0.1181    6  0.1381    6  0.1381    7  0.1181
    7  0.1181    8  0.1381    8  0.1381    9  0.1181    9  0.1181   10  0.1381
   10  0.1381   12  0.1272
  12  2.532591    1  0.8651    1  0.0108    2  0.0108    2  0.8651    3  0.8651    3  0.0108
    4  0.2404    5  0.1381    5  0.1381    6  0.1181    6  0.1181    7  0.1381
    7  0.1381    8  0.1181    8  0.1181    9  0.1381    9  0.1381   10  0.1181
   10  0.1181   11  0.1272

  ReaxFF: Delta lone pair: 

   1  1.000000
   2  1.000000
   3  1.000000
   4  1.000000
   5  1.822217
   6  1.822217
   7  1.822217
   8  1.822217
   9  1.822217
  10  1.822217
  11  1.822217
  12  1.822217


  ReaxFF : Energy contributions: 

  E(bond)     =     -87.05501891 eV =    -2007.5235581 kcal
  E(bpen)     =       0.00000000 eV =        0.0000000 kcal
  E(lonepair) =       2.21216459 eV =       51.0134003 kcal
  E(over)     =      16.63082435 eV =      383.5134619 kcal
  E(under)    =       0.00000000 eV =        0.0000000 kcal
  E(val)      =      19.44993110 eV =      448.5231912 kcal
  E(pen)      =       0.00000000 eV =        0.0000000 kcal
  E(coa)      =       0.00000000 eV =        0.0000000 kcal
  E(tors)     =      36.28176260 eV =      836.6719584 kcal
  E(conj)     =       0.00000000 eV =        0.0000000 kcal
  E(hb)       =       0.00000000 eV =        0.0000000 kcal
  E(vdw)      =       6.41369507 eV =      147.9023739 kcal
  E(coulomb)  =      -3.34422152 eV =      -77.1190860 kcal
  E(self)     =      -0.10608718 eV =       -2.4464129 kcal
  Cycle:      0 Energy:        -9.516950  Gnorm:      0.369554  CPU:    0.039
  ** Cosine =   1.000000

  ReaxFF: Delta and Bond Order prime: 

   1  2.737752    2  0.0021    2  0.0021    2  0.0021    2  0.0021    3  0.0021    3  0.0021
    3  0.0021    3  0.0021    4  0.0021    4  0.0021    4  0.0021    4  0.0021
    5  0.2351    6  0.2351    7  0.0102    7  0.8635    8  0.8635    8  0.0102
    9  0.0102    9  0.8635   10  0.8635   10  0.0102   11  0.0102   11  0.8635
   12  0.8635   12  0.0102
   2  2.737752    1  0.0021    1  0.0021    1  0.0021    1  0.0021    3  0.0021    3  0.0021
    3  0.0021    3  0.0021    4  0.0021    4  0.0021    4  0.0021    4  0.0021
    5  0.8635    5  0.0102    6  0.0102    6  0.8635    7  0.2351    8  0.2351
    9  0.0102    9  0.8635   10  0.8635   10  0.0102   11  0.8635   11  0.0102
   12  0.0102   12  0.8635
   3  2.737752    1  0.0021    1  0.0021    1  0.0021    1  0.0021    2  0.0021    2  0.0021
    2  0.0021    2  0.0021    4  0.0021    4  0.0021    4  0.0021    4  0.0021
    5  0.8635    5  0.0102    6  0.0102    6  0.8635    7  0.8635    7  0.0102
    8  0.0102    8  0.8635    9  0.2351   10  0.2351   11  0.0102   11  0.8635
   12  0.8635   12  0.0102
   4  2.737752    1  0.0021    1  0.0021    1  0.0021    1  0.0021    2  0.0021    2  0.0021
    2  0.0021    2  0.0021    3  0.0021    3  0.0021    3  0.0021    3  0.0021
    5  0.8635    5  0.0102    6  0.0102    6  0.8635    7  0.0102    7  0.8635
    8  0.8635    8  0.0102    9  0.8635    9  0.0102   10  0.0102   10  0.8635
   11  0.2351   12  0.2351
   5 15.051500    1  0.2351    2  0.8635    2  0.0102    3  0.8635    3  0.0102    4  0.8635
    4  0.0102    6  1.0857    7  1.0092    7  1.0092    8  1.1758    8  1.1758
    9  1.0092    9  1.0092   10  1.1758   10  1.1758   11  1.0092   11  1.0092
   12  1.1758   12  1.1758
   6 15.051500    1  0.2351    2  0.0102    2  0.8635    3  0.0102    3  0.8635    4  0.0102
    4  0.8635    5  1.0857    7  1.1758    7  1.1758    8  1.0092    8  1.0092
    9  1.1758    9  1.1758   10  1.0092   10  1.0092   11  1.1758   11  1.1758
   12  1.0092   12  1.0092
   7 15.051500    1  0.0102    1  0.8635    2  0.2351    3  0.8635    3  0.0102    4  0.0102
    4  0.8635    5  1.0092    5  1.0092    6  1.1758    6  1.1758    8  1.0857
    9  1.0092    9  1.0092   10  1.1758   10  1.1758   11  1.0092   11  1.0092
   12  1.1758   12  1.1758
   8 15.051500    1  0.8635    1  0.0102    2  0.2351    3  0.0102    3  0.8635    4  0.8635
    4  0.0102    5  1.1758    5  1.1758    6  1.0092    6  1.0092    7  1.0857
    9  1.1758    9  1.1758   10  1.0092   10  1.0092   11  1.1758   11  1.1758
   12  1.0092   12  1.0092
   9 15.051500    1  0.0102    1  0.8635    2  0.0102    2  0.8635    3  0.2351    4  0.8635
    4  0.0102    5  1.0092    5  1.0092    6  1.1758    6  1.1758    7  1.0092
    7  1.0092    8  1.1758    8  1.1758   10  1.0857   11  1.0092   11  1.0092
   12  1.1758   12  1.1758
  10 15.051500    1  0.8635    1  0.0102    2  0.8635    2  0.0102    3  0.2351    4  0.0102
    4  0.8635    5  1.1758    5  1.1758    6  1.0092    6  1.0092    7  1.1758
    7  1.1758    8  1.0092    8  1.0092    9  1.0857   11  1.1758   11  1.1758
   12  1.0092   12  1.0092
  11 15.051500    1  0.0102    1  0.8635    2  0.8635    2  0.0102    3  0.0102    3  0.8635
    4  0.2351    5  1.0092    5  1.0092    6  1.1758    6  1.1758    7  1.0092
    7  1.0092    8  1.1758    8  1.1758    9  1.0092    9  1.0092   10  1.1758
   10  1.1758   12  1.0857
  12 15.051500    1  0.8635    1  0.0102    2  0.0102    2  0.8635    3  0.8635    3  0.0102
    4  0.2351    5  1.1758    5  1.1758    6  1.0092    6  1.0092    7  1.1758
    7  1.1758    8  1.0092    8  1.0092    9  1.1758    9  1.1758   10  1.0092
   10  1.0092   11  1.0857

  ReaxFF: Bond Order sigma prime: 

   1    2  0.0021    2  0.0021    2  0.0021    2  0.0021    3  0.0021    3  0.0021
    3  0.0021    3  0.0021    4  0.0021    4  0.0021    4  0.0021    4  0.0021
    5  0.2351    6  0.2351    7  0.0102    7  0.8635    8  0.8635    8  0.0102
    9  0.0102    9  0.8635   10  0.8635   10  0.0102   11  0.0102   11  0.8635
   12  0.8635   12  0.0102
   2    1  0.0021    1  0.0021    1  0.0021    1  0.0021    3  0.0021    3  0.0021
    3  0.0021    3  0.0021    4  0.0021    4  0.0021    4  0.0021    4  0.0021
    5  0.8635    5  0.0102    6  0.0102    6  0.8635    7  0.2351    8  0.2351
    9  0.0102    9  0.8635   10  0.8635   10  0.0102   11  0.8635   11  0.0102
   12  0.0102   12  0.8635
   3    1  0.0021    1  0.0021    1  0.0021    1  0.0021    2  0.0021    2  0.0021
    2  0.0021    2  0.0021    4  0.0021    4  0.0021    4  0.0021    4  0.0021
    5  0.8635    5  0.0102    6  0.0102    6  0.8635    7  0.8635    7  0.0102
    8  0.0102    8  0.8635    9  0.2351   10  0.2351   11  0.0102   11  0.8635
   12  0.8635   12  0.0102
   4    1  0.0021    1  0.0021    1  0.0021    1  0.0021    2  0.0021    2  0.0021
    2  0.0021    2  0.0021    3  0.0021    3  0.0021    3  0.0021    3  0.0021
    5  0.8635    5  0.0102    6  0.0102    6  0.8635    7  0.0102    7  0.8635
    8  0.8635    8  0.0102    9  0.8635    9  0.0102   10  0.0102   10  0.8635
   11  0.2351   12  0.2351
   5    1  0.2351    2  0.8635    2  0.0102    3  0.8635    3  0.0102    4  0.8635
    4  0.0102    6  0.0857    7  0.0092    7  0.0092    8  0.1758    8  0.1758
    9  0.0092    9  0.0092   10  0.1758   10  0.1758   11  0.0092   11  0.0092
   12  0.1758   12  0.1758
   6    1  0.2351    2  0.0102    2  0.8635    3  0.0102    3  0.8635    4  0.0102
    4  0.8635    5  0.0857    7  0.1758    7  0.1758    8  0.0092    8  0.0092
    9  0.1758    9  0.1758   10  0.0092   10  0.0092   11  0.1758   11  0.1758
   12  0.0092   12  0.0092
   7    1  0.0102    1  0.8635    2  0.2351    3  0.8635    3  0.0102    4  0.0102
    4  0.8635    5  0.0092    5  0.0092    6  0.1758    6  0.1758    8  0.0857
    9  0.0092    9  0.0092   10  0.1758   10  0.1758   11  0.0092   11  0.0092
   12  0.1758   12  0.1758
   8    1  0.8635    1  0.0102    2  0.2351    3  0.0102    3  0.8635    4  0.8635
    4  0.0102    5  0.1758    5  0.1758    6  0.0092    6  0.0092    7  0.0857
    9  0.1758    9  0.1758   10  0.0092   10  0.0092   11  0.1758   11  0.1758
   12  0.0092   12  0.0092
   9    1  0.0102    1  0.8635    2  0.0102    2  0.8635    3  0.2351    4  0.8635
    4  0.0102    5  0.0092    5  0.0092    6  0.1758    6  0.1758    7  0.0092
    7  0.0092    8  0.1758    8  0.1758   10  0.0857   11  0.0092   11  0.0092
   12  0.1758   12  0.1758
  10    1  0.8635    1  0.0102    2  0.8635    2  0.0102    3  0.2351    4  0.0102
    4  0.8635    5  0.1758    5  0.1758    6  0.0092    6  0.0092    7  0.1758
    7  0.1758    8  0.0092    8  0.0092    9  0.0857   11  0.1758   11  0.1758
   12  0.0092   12  0.0092
  11    1  0.0102    1  0.8635    2  0.8635    2  0.0102    3  0.0102    3  0.8635
    4  0.2351    5  0.0092    5  0.0092    6  0.1758    6  0.1758    7  0.0092
    7  0.0092    8  0.1758    8  0.1758    9  0.0092    9  0.0092   10  0.1758
   10  0.1758   12  0.0857
  12    1  0.8635    1  0.0102    2  0.0102    2  0.8635    3  0.8635    3  0.0102
    4  0.2351    5  0.1758    5  0.1758    6  0.0092    6  0.0092    7  0.1758
    7  0.1758    8  0.0092    8  0.0092    9  0.1758    9  0.1758   10  0.0092
   10  0.0092   11  0.0857

  ReaxFF: Bond Order pi prime: 

   1    2  0.0000    2  0.0000    2  0.0000    2  0.0000    3  0.0000    3  0.0000
    3  0.0000    3  0.0000    4  0.0000    4  0.0000    4  0.0000    4  0.0000
    5  0.0000    6  0.0000    7  0.0000    7  0.0000    8  0.0000    8  0.0000
    9  0.0000    9  0.0000   10  0.0000   10  0.0000   11  0.0000   11  0.0000
   12  0.0000   12  0.0000
   2    1  0.0000    1  0.0000    1  0.0000    1  0.0000    3  0.0000    3  0.0000
    3  0.0000    3  0.0000    4  0.0000    4  0.0000    4  0.0000    4  0.0000
    5  0.0000    5  0.0000    6  0.0000    6  0.0000    7  0.0000    8  0.0000
    9  0.0000    9  0.0000   10  0.0000   10  0.0000   11  0.0000   11  0.0000
   12  0.0000   12  0.0000
   3    1  0.0000    1  0.0000    1  0.0000    1  0.0000    2  0.0000    2  0.0000
    2  0.0000    2  0.0000    4  0.0000    4  0.0000    4  0.0000    4  0.0000
    5  0.0000    5  0.0000    6  0.0000    6  0.0000    7  0.0000    7  0.0000
    8  0.0000    8  0.0000    9  0.0000   10  0.0000   11  0.0000   11  0.0000
   12  0.0000   12  0.0000
   4    1  0.0000    1  0.0000    1  0.0000    1  0.0000    2  0.0000    2  0.0000
    2  0.0000    2  0.0000    3  0.0000    3  0.0000    3  0.0000    3  0.0000
    5  0.0000    5  0.0000    6  0.0000    6  0.0000    7  0.0000    7  0.0000
    8  0.0000    8  0.0000    9  0.0000    9  0.0000   10  0.0000   10  0.0000
   11  0.0000   12  0.0000
   5    1  0.0000    2  0.0000    2  0.0000    3  0.0000    3  0.0000    4  0.0000
    4  0.0000    6  0.0000    7  0.0000    7  0.0000    8  0.0000    8  0.0000
    9  0.0000    9  0.0000   10  0.0000   10  0.0000   11  0.0000   11  0.0000
   12  0.0000   12  0.0000
   6    1  0.0000    2  0.0000    2  0.0000    3  0.0000    3  0.0000    4  0.0000
    4  0.0000    5  0.0000    7  0.0000    7  0.0000    8  0.0000    8  0.0000
    9  0.0000    9  0.0000   10  0.0000   10  0.0000   11  0.0000   11  0.0000
   12  0.0000   12  0.0000
   7    1  0.0000    1  0.0000    2  0.0000    3  0.0000    3  0.0000    4  0.0000
    4  0.0000    5  0.0000    5  0.0000    6  0.0000    6  0.0000    8  0.0000
    9  0.0000    9  0.0000   10  0.0000   10  0.0000   11  0.0000   11  0.0000
   12  0.0000   12  0.0000
   8    1  0.0000    1  0.0000    2  0.0000    3  0.0000    3  0.0000    4  0.0000
    4  0.0000    5  0.0000    5  0.0000    6  0.0000    6  0.0000    7  0.0000
    9  0.0000    9  0.0000   10  0.0000   10  0.0000   11  0.0000   11  0.0000
   12  0.0000   12  0.0000
   9    1  0.0000    1  0.0000    2  0.0000    2  0.0000    3  0.0000    4  0.0000
    4  0.0000    5  0.0000    5  0.0000    6  0.0000    6  0.0000    7  0.0000
    7  0.0000    8  0.0000    8  0.0000   10  0.0000   11  0.0000   11  0.0000
   12  0.0000   12  0.0000
  10    1  0.0000    1  0.0000    2  0.0000    2  0.0000    3  0.0000    4  0.0000
    4  0.0000    5  0.0000    5  0.0000    6  0.0000    6  0.0000    7  0.0000
    7  0.0000    8  0.0000    8  0.0000    9  0.0000   11  0.0000   11  0.0000
   12  0.0000   12  0.0000
  11    1  0.0000    1  0.0000    2  0.0000    2  0.0000    3  0.0000    3  0.0000
    4  0.0000    5  0.0000    5  0.0000    6  0.0000    6  0.0000    7  0.0000
    7  0.0000    8  0.0000    8  0.0000    9  0.0000    9  0.0000   10  0.0000
   10  0.0000   12  0.0000
  12    1  0.0000    1  0.0000    2  0.0000    2  0.0000    3  0.0000    3  0.0000
    4  0.0000    5  0.0000    5  0.0000    6  0.0000    6  0.0000    7  0.0000
    7  0.0000    8  0.0000    8  0.0000    9  0.0000    9  0.0000   10  0.0000
   10  0.0000   11  0.0000

  ReaxFF: Bond Order pi-pi prime: 

   1    2  0.0000    2  0.0000    2  0.0000    2  0.0000    3  0.0000    3  0.0000
    3  0.0000    3  0.0000    4  0.0000    4  0.0000    4  0.0000    4  0.0000
    5  0.0000    6  0.0000    7  0.0000    7  0.0000    8  0.0000    8  0.0000
    9  0.0000    9  0.0000   10  0.0000   10  0.0000   11  0.0000   11  0.0000
   12  0.0000   12  0.0000
   2    1  0.0000    1  0.0000    1  0.0000    1  0.0000    3  0.0000    3  0.0000
    3  0.0000    3  0.0000    4  0.0000    4  0.0000    4  0.0000    4  0.0000
    5  0.0000    5  0.0000    6  0.0000    6  0.0000    7  0.0000    8  0.0000
    9  0.0000    9  0.0000   10  0.0000   10  0.0000   11  0.0000   11  0.0000
   12  0.0000   12  0.0000
   3    1  0.0000    1  0.0000    1  0.0000    1  0.0000    2  0.0000    2  0.0000
    2  0.0000    2  0.0000    4  0.0000    4  0.0000    4  0.0000    4  0.0000
    5  0.0000    5  0.0000    6  0.0000    6  0.0000    7  0.0000    7  0.0000
    8  0.0000    8  0.0000    9  0.0000   10  0.0000   11  0.0000   11  0.0000
   12  0.0000   12  0.0000
   4    1  0.0000    1  0.0000    1  0.0000    1  0.0000    2  0.0000    2  0.0000
    2  0.0000    2  0.0000    3  0.0000    3  0.0000    3  0.0000    3  0.0000
    5  0.0000    5  0.0000    6  0.0000    6  0.0000    7  0.0000    7  0.0000
    8  0.0000    8  0.0000    9  0.0000    9  0.0000   10  0.0000   10  0.0000
   11  0.0000   12  0.0000
   5    1  0.0000    2  0.0000    2  0.0000    3  0.0000    3  0.0000    4  0.0000
    4  0.0000    6  1.0000    7  1.0000    7  1.0000    8  1.0000    8  1.0000
    9  1.0000    9  1.0000   10  1.0000   10  1.0000   11  1.0000   11  1.0000
   12  1.0000   12  1.0000
   6    1  0.0000    2  0.0000    2  0.0000    3  0.0000    3  0.0000    4  0.0000
    4  0.0000    5  1.0000    7  1.0000    7  1.0000    8  1.0000    8  1.0000
    9  1.0000    9  1.0000   10  1.0000   10  1.0000   11  1.0000   11  1.0000
   12  1.0000   12  1.0000
   7    1  0.0000    1  0.0000    2  0.0000    3  0.0000    3  0.0000    4  0.0000
    4  0.0000    5  1.0000    5  1.0000    6  1.0000    6  1.0000    8  1.0000
    9  1.0000    9  1.0000   10  1.0000   10  1.0000   11  1.0000   11  1.0000
   12  1.0000   12  1.0000
   8    1  0.0000    1  0.0000    2  0.0000    3  0.0000    3  0.0000    4  0.0000
    4  0.0000    5  1.0000    5  1.0000    6  1.0000    6  1.0000    7  1.0000
    9  1.0000    9  1.0000   10  1.0000   10  1.0000   11  1.0000   11  1.0000
   12  1.0000   12  1.0000
   9    1  0.0000    1  0.0000    2  0.0000    2  0.0000    3  0.0000    4  0.0000
    4  0.0000    5  1.0000    5  1.0000    6  1.0000    6  1.0000    7  1.0000
    7  1.0000    8  1.0000    8  1.0000   10  1.0000   11  1.0000   11  1.0000
   12  1.0000   12  1.0000
  10    1  0.0000    1  0.0000    2  0.0000    2  0.0000    3  0.0000    4  0.0000
    4  0.0000    5  1.0000    5  1.0000    6  1.0000    6  1.0000    7  1.0000
    7  1.0000    8  1.0000    8  1.0000    9  1.0000   11  1.0000   11  1.0000
   12  1.0000   12  1.0000
  11    1  0.0000    1  0.0000    2  0.0000    2  0.0000    3  0.0000    3  0.0000
    4  0.0000    5  1.0000    5  1.0000    6  1.0000    6  1.0000    7  1.0000
    7  1.0000    8  1.0000    8  1.0000    9  1.0000    9  1.0000   10  1.0000
   10  1.0000   12  1.0000
  12    1  0.0000    1  0.0000    2  0.0000    2  0.0000    3  0.0000    3  0.0000
    4  0.0000    5  1.0000    5  1.0000    6  1.0000    6  1.0000    7  1.0000
    7  1.0000    8  1.0000    8  1.0000    9  1.0000    9  1.0000   10  1.0000
   10  1.0000   11  1.0000



  ReaxFF: Delta and Bond Order: 

   1  2.737752    2  0.0021    2  0.0021    2  0.0021    2  0.0021    3  0.0021    3  0.0021
    3  0.0021    3  0.0021    4  0.0021    4  0.0021    4  0.0021    4  0.0021
    5  0.2351    6  0.2351    7  0.0102    7  0.8635    8  0.8635    8  0.0102
    9  0.0102    9  0.8635   10  0.8635   10  0.0102   11  0.0102   11  0.8635
   12  0.8635   12  0.0102
   2  2.737752    1  0.0021    1  0.0021    1  0.0021    1  0.0021    3  0.0021    3  0.0021
    3  0.0021    3  0.0021    4  0.0021    4  0.0021    4  0.0021    4  0.0021
    5  0.8635    5  0.0102    6  0.0102    6  0.8635    7  0.2351    8  0.2351
    9  0.0102    9  0.8635   10  0.8635   10  0.0102   11  0.8635   11  0.0102
   12  0.0102   12  0.8635
   3  2.737752    1  0.0021    1  0.0021    1  0.0021    1  0.0021    2  0.0021    2  0.0021
    2  0.0021    2  0.0021    4  0.0021    4  0.0021    4  0.0021    4  0.0021
    5  0.8635    5  0.0102    6  0.0102    6  0.8635    7  0.8635    7  0.0102
    8  0.0102    8  0.8635    9  0.2351   10  0.2351   11  0.0102   11  0.8635
   12  0.8635   12  0.0102
   4  2.737752    1  0.0021    1  0.0021    1  0.0021    1  0.0021    2  0.0021    2  0.0021
    2  0.0021    2  0.0021    3  0.0021    3  0.0021    3  0.0021    3  0.0021
    5  0.8635    5  0.0102    6  0.0102    6  0.8635    7  0.0102    7  0.8635
    8  0.8635    8  0.0102    9  0.8635    9  0.0102   10  0.0102   10  0.8635
   11  0.2351   12  0.2351
   5  2.521205    1  0.2351    2  0.8635    2  0.0102    3  0.8635    3  0.0102    4  0.8635
    4  0.0102    6  0.1273    7  0.1184    7  0.1184    8  0.1379    8  0.1379
    9  0.1184    9  0.1184   10  0.1379   10  0.1379   11  0.1184   11  0.1184
   12  0.1379   12  0.1379
   6  2.521205    1  0.2351    2  0.0102    2  0.8635    3  0.0102    3  0.8635    4  0.0102
    4  0.8635    5  0.1273    7  0.1379    7  0.1379    8  0.1184    8  0.1184
    9  0.1379    9  0.1379   10  0.1184   10  0.1184   11  0.1379   11  0.1379
   12  0.1184   12  0.1184
   7  2.521205    1  0.0102    1  0.8635    2  0.2351    3  0.8635    3  0.0102    4  0.0102
    4  0.8635    5  0.1184    5  0.1184    6  0.1379    6  0.1379    8  0.1273
    9  0.1184    9  0.1184   10  0.1379   10  0.1379   11  0.1184   11  0.1184
   12  0.1379   12  0.1379
   8  2.521205    1  0.8635    1  0.0102    2  0.2351    3  0.0102    3  0.8635    4  0.8635
    4  0.0102    5  0.1379    5  0.1379    6  0.1184    6  0.1184    7  0.1273
    9  0.1379    9  0.1379   10  0.1184   10  0.1184   11  0.1379   11  0.1379
   12  0.1184   12  0.1184
   9  2.521205    1  0.0102    1  0.8635    2  0.0102    2  0.8635    3  0.2351    4  0.8635
    4  0.0102    5  0.1184    5  0.1184    6  0.1379    6  0.1379    7  0.1184
    7  0.1184    8  0.1379    8  0.1379   10  0.1273   11  0.1184   11  0.1184
   12  0.1379   12  0.1379
  10  2.521205    1  0.8635    1  0.0102    2  0.8635    2  0.0102    3  0.2351    4  0.0102
    4  0.8635    5  0.1379    5  0.1379    6  0.1184    6  0.1184    7  0.1379
    7  0.1379    8  0.1184    8  0.1184    9  0.1273   11  0.1379   11  0.1379
   12  0.1184   12  0.1184
  11  2.521205    1  0.0102    1  0.8635    2  0.8635    2  0.0102    3  0.0102    3  0.8635
    4  0.2351    5  0.1184    5  0.1184    6  0.1379    6  0.1379    7  0.1184
    7  0.1184    8  0.1379    8  0.1379    9  0.1184    9  0.1184   10  0.1379
   10  0.1379   12  0.1273
  12  2.521205    1  0.8635    1  0.0102    2  0.0102    2  0.8635    3  0.8635    3  0.0102
    4  0.2351    5  0.1379    5  0.1379    6  0.1184    6  0.1184    7  0.1379
    7  0.1379    8  0.1184    8  0.1184    9  0.1379    9  0.1379   10  0.1184
   10  0.1184   11  0.1273

  ReaxFF: Delta lone pair: 

   1  1.000000
   2  1.000000
   3  1.000000
   4  1.000000
   5  1.808742
   6  1.808742
   7  1.808742
   8  1.808742
   9  1.808742
  10  1.808742
  11  1.808742
  12  1.808742


  ReaxFF : Energy contributions: 

  E(bond)     =     -86.73106136 eV =    -2000.0529675 kcal
  E(bpen)     =       0.00000000 eV =        0.0000000 kcal
  E(lonepair) =       2.19580554 eV =       50.6361542 kcal
  E(over)     =      16.51851658 eV =      380.9235998 kcal
  E(under)    =       0.00000000 eV =        0.0000000 kcal
  E(val)      =      19.31206333 eV =      445.3439051 kcal
  E(pen)      =       0.00000000 eV =        0.0000000 kcal
  E(coa)      =       0.00000000 eV =        0.0000000 kcal
  E(tors)     =      36.31403350 eV =      837.4161382 kcal
  E(conj)     =       0.00000000 eV =        0.0000000 kcal
  E(hb)       =       0.00000000 eV =        0.0000000 kcal
  E(vdw)      =       6.27086759 eV =      144.6087150 kcal
  E(coulomb)  =      -3.33532894 eV =      -76.9140194 kcal
  E(self)     =      -0.11195176 eV =       -2.5816524 kcal

  ReaxFF: Delta and Bond Order prime: 

   1  2.711079    2  0.0019    2  0.0019    2  0.0019    2  0.0019    3  0.0019    3  0.0019
    3  0.0019    3  0.0019    4  0.0019    4  0.0019    4  0.0019    4  0.0019
    5  0.2299    6  0.2299    7  0.0097    7  0.8618    8  0.8618    8  0.0097
    9  0.0097    9  0.8618   10  0.8618   10  0.0097   11  0.0097   11  0.8618
   12  0.8618   12  0.0097
   2  2.711079    1  0.0019    1  0.0019    1  0.0019    1  0.0019    3  0.0019    3  0.0019
    3  0.0019    3  0.0019    4  0.0019    4  0.0019    4  0.0019    4  0.0019
    5  0.8618    5  0.0097    6  0.0097    6  0.8618    7  0.2299    8  0.2299
    9  0.0097    9  0.8618   10  0.8618   10  0.0097   11  0.8618   11  0.0097
   12  0.0097   12  0.8618
   3  2.711079    1  0.0019    1  0.0019    1  0.0019    1  0.0019    2  0.0019    2  0.0019
    2  0.0019    2  0.0019    4  0.0019    4  0.0019    4  0.0019    4  0.0019
    5  0.8618    5  0.0097    6  0.0097    6  0.8618    7  0.8618    7  0.0097
    8  0.0097    8  0.8618    9  0.2299   10  0.2299   11  0.0097   11  0.8618
   12  0.8618   12  0.0097
   4  2.711079    1  0.0019    1  0.0019    1  0.0019    1  0.0019    2  0.0019    2  0.0019
    2  0.0019    2  0.0019    3  0.0019    3  0.0019    3  0.0019    3  0.0019
    5  0.8618    5  0.0097    6  0.0097    6  0.8618    7  0.0097    7  0.8618
    8  0.8618    8  0.0097    9  0.8618    9  0.0097   10  0.0097   10  0.8618
   11  0.2299   12  0.2299
   5 15.009965    1  0.2299    2  0.8618    2  0.0097    3  0.8618    3  0.0097    4  0.8618
    4  0.0097    6  1.0841    7  1.0086    7  1.0086    8  1.1716    8  1.1716
    9  1.0086    9  1.0086   10  1.1716   10  1.1716   11  1.0086   11  1.0086
   12  1.1716   12  1.1716
   6 15.009965    1  0.2299    2  0.0097    2  0.8618    3  0.0097    3  0.8618    4  0.0097
    4  0.8618    5  1.0841    7  1.1716    7  1.1716    8  1.0086    8  1.0086
    9  1.1716    9  1.1716   10  1.0086   10  1.0086   11  1.1716   11  1.1716
   12  1.0086   12  1.0086
   7 15.009965    1  0.0097    1  0.8618    2  0.2299    3  0.8618    3  0.0097    4  0.0097
    4  0.8618    5  1.0086    5  1.0086    6  1.1716    6  1.1716    8  1.0841
    9  1.0086    9  1.0086   10  1.1716   10  1.1716   11  1.0086   11  1.0086
   12  1.1716   12  1.1716
   8 15.009965    1  0.8618    1  0.0097    2  0.2299    3  0.0097    3  0.8618    4  0.8618
    4  0.0097    5  1.1716    5  1.1716    6  1.0086    6  1.0086    7  1.0841
    9  1.1716    9  1.1716   10  1.0086   10  1.0086   11  1.1716   11  1.1716
   12  1.0086   12  1.0086
   9 15.009965    1  0.0097    1  0.8618    2  0.0097    2  0.8618    3  0.2299    4  0.8618
    4  0.0097    5  1.0086    5  1.0086    6  1.1716    6  1.1716    7  1.0086
    7  1.0086    8  1.1716    8  1.1716   10  1.0841   11  1.0086   11  1.0086
   12  1.1716   12  1.1716
  10 15.009965    1  0.8618    1  0.0097    2  0.8618    2  0.0097    3  0.2299    4  0.0097
    4  0.8618    5  1.1716    5  1.1716    6  1.0086    6  1.0086    7  1.1716
    7  1.1716    8  1.0086    8  1.0086    9  1.0841   11  1.1716   11  1.1716
   12  1.0086   12  1.0086
  11 15.009965    1  0.0097    1  0.8618    2  0.8618    2  0.0097    3  0.0097    3  0.8618
    4  0.2299    5  1.0086    5  1.0086    6  1.1716    6  1.1716    7  1.0086
    7  1.0086    8  1.1716    8  1.1716    9  1.0086    9  1.0086   10  1.1716
   10  1.1716   12  1.0841
  12 15.009965    1  0.8618    1  0.0097    2  0.0097    2  0.8618    3  0.8618    3  0.0097
    4  0.2299    5  1.1716    5  1.1716    6  1.0086    6  1.0086    7  1.1716
    7  1.1716    8  1.0086    8  1.0086    9  1.1716    9  1.1716   10  1.0086
   10  1.0086   11  1.0841

  ReaxFF: Bond Order sigma prime: 

   1    2  0.0019    2  0.0019    2  0.0019    2  0.0019    3  0.0019    3  0.0019
    3  0.0019    3  0.0019    4  0.0019    4  0.0019    4  0.0019    4  0.0019
    5  0.2299    6  0.2299    7  0.0097    7  0.8618    8  0.8618    8  0.0097
    9  0.0097    9  0.8618   10  0.8618   10  0.0097   11  0.0097   11  0.8618
   12  0.8618   12  0.0097
   2    1  0.0019    1  0.0019    1  0.0019    1  0.0019    3  0.0019    3  0.0019
    3  0.0019    3  0.0019    4  0.0019    4  0.0019    4  0.0019    4  0.0019
    5  0.8618    5  0.0097    6  0.0097    6  0.8618    7  0.2299    8  0.2299
    9  0.0097    9  0.8618   10  0.8618   10  0.0097   11  0.8618   11  0.0097
   12  0.0097   12  0.8618
   3    1  0.0019    1  0.0019    1  0.0019    1  0.0019    2  0.0019    2  0.0019
    2  0.0019    2  0.0019    4  0.0019    4  0.0019    4  0.0019    4  0.0019
    5  0.8618    5  0.0097    6  0.0097    6  0.8618    7  0.8618    7  0.0097
    8  0.0097    8  0.8618    9  0.2299   10  0.2299   11  0.0097   11  0.8618
   12  0.8618   12  0.0097
   4    1  0.0019    1  0.0019    1  0.0019    1  0.0019    2  0.0019    2  0.0019
    2  0.0019    2  0.0019    3  0.0019    3  0.0019    3  0.0019    3  0.0019
    5  0.8618    5  0.0097    6  0.0097    6  0.8618    7  0.0097    7  0.8618
    8  0.8618    8  0.0097    9  0.8618    9  0.0097   10  0.0097   10  0.8618
   11  0.2299   12  0.2299
   5    1  0.2299    2  0.8618    2  0.0097    3  0.8618    3  0.0097    4  0.8618
    4  0.0097    6  0.0841    7  0.0086    7  0.0086    8  0.1716    8  0.1716
    9  0.0086    9  0.0086   10  0.1716   10  0.1716   11  0.0086   11  0.0086
   12  0.1716   12  0.1716
   6    1  0.2299    2  0.0097    2  0.8618    3  0.0097    3  0.8618    4  0.0097
    4  0.8618    5  0.0841    7  0.1716    7  0.1716    8  0.0086    8  0.0086
    9  0.1716    9  0.1716   10  0.0086   10  0.0086   11  0.1716   11  0.1716
   12  0.0086   12  0.0086
   7    1  0.0097    1  0.8618    2  0.2299    3  0.8618    3  0.0097    4  0.0097
    4  0.8618    5  0.0086    5  0.0086    6  0.1716    6  0.1716    8  0.0841
    9  0.0086    9  0.0086   10  0.1716   10  0.1716   11  0.0086   11  0.0086
   12  0.1716   12  0.1716
   8    1  0.8618    1  0.0097    2  0.2299    3  0.0097    3  0.8618    4  0.8618
    4  0.0097    5  0.1716    5  0.1716    6  0.0086    6  0.0086    7  0.0841
    9  0.1716    9  0.1716   10  0.0086   10  0.0086   11  0.1716   11  0.1716
   12  0.0086   12  0.0086
   9    1  0.0097    1  0.8618    2  0.0097    2  0.8618    3  0.2299    4  0.8618
    4  0.0097    5  0.0086    5  0.0086    6  0.1716    6  0.1716    7  0.0086
    7  0.0086    8  0.1716    8  0.1716   10  0.0841   11  0.0086   11  0.0086
   12  0.1716   12  0.1716
  10    1  0.8618    1  0.0097    2  0.8618    2  0.0097    3  0.2299    4  0.0097
    4  0.8618    5  0.1716    5  0.1716    6  0.0086    6  0.0086    7  0.1716
    7  0.1716    8  0.0086    8  0.0086    9  0.0841   11  0.1716   11  0.1716
   12  0.0086   12  0.0086
  11    1  0.0097    1  0.8618    2  0.8618    2  0.0097    3  0.0097    3  0.8618
    4  0.2299    5  0.0086    5  0.0086    6  0.1716    6  0.1716    7  0.0086
    7  0.0086    8  0.1716    8  0.1716    9  0.0086    9  0.0086   10  0.1716
   10  0.1716   12  0.0841
  12    1  0.8618    1  0.0097    2  0.0097    2  0.8618    3  0.8618    3  0.0097
    4  0.2299    5  0.1716    5  0.1716    6  0.0086    6  0.0086    7  0.1716
    7  0.1716    8  0.0086    8  0.0086    9  0.1716    9  0.1716   10  0.0086
   10  0.0086   11  0.0841

  ReaxFF: Bond Order pi prime: 

   1    2  0.0000    2  0.0000    2  0.0000    2  0.0000    3  0.0000    3  0.0000
    3  0.0000    3  0.0000    4  0.0000    4  0.0000    4  0.0000    4  0.0000
    5  0.0000    6  0.0000    7  0.0000    7  0.0000    8  0.0000    8  0.0000
    9  0.0000    9  0.0000   10  0.0000   10  0.0000   11  0.0000   11  0.0000
   12  0.0000   12  0.0000
   2    1  0.0000    1  0.0000    1  0.0000    1  0.0000    3  0.0000    3  0.0000
    3  0.0000    3  0.0000    4  0.0000    4  0.0000    4  0.0000    4  0.0000
    5  0.0000    5  0.0000    6  0.0000    6  0.0000    7  0.0000    8  0.0000
    9  0.0000    9  0.0000   10  0.0000   10  0.0000   11  0.0000   11  0.0000
   12  0.0000   12  0.0000
   3    1  0.0000    1  0.0000    1  0.0000    1  0.0000    2  0.0000    2  0.0000
    2  0.0000    2  0.0000    4  0.0000    4  0.0000    4  0.0000    4  0.0000
    5  0.0000    5  0.0000    6  0.0000    6  0.0000    7  0.0000    7  0.0000
    8  0.0000    8  0.0000    9  0.0000   10  0.0000   11  0.0000   11  0.0000
   12  0.0000   12  0.0000
   4    1  0.0000    1  0.0000    1  0.0000    1  0.0000    2  0.0000    2  0.0000
    2  0.0000    2  0.0000    3  0.0000    3  0.0000    3  0.0000    3  0.0000
    5  0.0000    5  0.0000    6  0.0000    6  0.0000    7  0.0000    7  0.0000
    8  0.0000    8  0.0000    9  0.0000    9  0.0000   10  0.0000   10  0.0000
   11  0.0000   12  0.0000
   5    1  0.0000    2  0.0000    2  0.0000    3  0.0000    3  0.0000    4  0.0000
    4  0.0000    6  0.0000    7  0.0000    7  0.0000    8  0.0000    8  0.0000
    9  0.0000    9  0.0000   10  0.0000   10  0.0000   11  0.0000   11  0.0000
   12  0.0000   12  0.0000
   6    1  0.0000    2  0.0000    2  0.0000    3  0.0000    3  0.0000    4  0.0000
    4  0.0000    5  0.0000    7  0.0000    7  0.0000    8  0.0000    8  0.0000
    9  0.0000    9  0.0000   10  0.0000   10  0.0000   11  0.0000   11  0.0000
   12  0.0000   12  0.0000
   7    1  0.0000    1  0.0000    2  0.0000    3  0.0000    3  0.0000    4  0.0000
    4  0.0000    5  0.0000    5  0.0000    6  0.0000    6  0.0000    8  0.0000
    9  0.0000    9  0.0000   10  0.0000   10  0.0000   11  0.0000   11  0.0000
   12  0.0000   12  0.0000
   8    1  0.0000    1  0.0000    2  0.0000    3  0.0000    3  0.0000    4  0.0000
    4  0.0000    5  0.0000    5  0.0000    6  0.0000    6  0.0000    7  0.0000
    9  0.0000    9  0.0000   10  0.0000   10  0.0000   11  0.0000   11  0.0000
   12  0.0000   12  0.0000
   9    1  0.0000    1  0.0000    2  0.0000    2  0.0000    3  0.0000    4  0.0000
    4  0.0000    5  0.0000    5  0.0000    6  0.0000    6  0.0000    7  0.0000
    7  0.0000    8  0.0000    8  0.0000   10  0.0000   11  0.0000   11  0.0000
   12  0.0000   12  0.0000
  10    1  0.0000    1  0.0000    2  0.0000    2  0.0000    3  0.0000    4  0.0000
    4  0.0000    5  0.0000    5  0.0000    6  0.0000    6  0.0000    7  0.0000
    7  0.0000    8  0.0000    8  0.0000    9  0.0000   11  0.0000   11  0.0000
   12  0.0000   12  0.0000
  11    1  0.0000    1  0.0000    2  0.0000    2  0.0000    3  0.0000    3  0.0000
    4  0.0000    5  0.0000    5  0.0000    6  0.0000    6  0.0000    7  0.0000
    7  0.0000    8  0.0000    8  0.0000    9  0.0000    9  0.0000   10  0.0000
   10  0.0000   12  0.0000
  12    1  0.0000    1  0.0000    2  0.0000    2  0.0000    3  0.0000    3  0.0000
    4  0.0000    5  0.0000    5  0.0000    6  0.0000    6  0.0000    7  0.0000
    7  0.0000    8  0.0000    8  0.0000    9  0.0000    9  0.0000   10  0.0000
   10  0.0000   11  0.0000

  ReaxFF: Bond Order pi-pi prime: 

   1    2  0.0000    2  0.0000    2  0.0000    2  0.0000    3  0.0000    3  0.0000
    3  0.0000    3  0.0000    4  0.0000    4  0.0000    4  0.0000    4  0.0000
    5  0.0000    6  0.0000    7  0.0000    7  0.0000    8  0.0000    8  0.0000
    9  0.0000    9  0.0000   10  0.0000   10  0.0000   11  0.0000   11  0.0000
   12  0.0000   12  0.0000
   2    1  0.0000    1  0.0000    1  0.0000    1  0.0000    3  0.0000    3  0.0000
    3  0.0000    3  0.0000    4  0.0000    4  0.0000    4  0.0000    4  0.0000
    5  0.0000    5  0.0000    6  0.0000    6  0.0000    7  0.0000    8  0.0000
    9  0.0000    9  0.0000   10  0.0000   10  0.0000   11  0.0000   11  0.0000
   12  0.0000   12  0.0000
   3    1  0.0000    1  0.0000    1  0.0000    1  0.0000    2  0.0000    2  0.0000
    2  0.0000    2  0.0000    4  0.0000    4  0.0000    4  0.0000    4  0.0000
    5  0.0000    5  0.0000    6  0.0000    6  0.0000    7  0.0000    7  0.0000
    8  0.0000    8  0.0000    9  0.0000   10  0.0000   11  0.0000   11  0.0000
   12  0.0000   12  0.0000
   4    1  0.0000    1  0.0000    1  0.0000    1  0.0000    2  0.0000    2  0.0000
    2  0.0000    2  0.0000    3  0.0000    3  0.0000    3  0.0000    3  0.0000
    5  0.0000    5  0.0000    6  0.0000    6  0.0000    7  0.0000    7  0.0000
    8  0.0000    8  0.0000    9  0.0000    9  0.0000   10  0.0000   10  0.0000
   11  0.0000   12  0.0000
   5    1  0.0000    2  0.0000    2  0.0000    3  0.0000    3  0.0000    4  0.0000
    4  0.0000    6  1.0000    7  1.0000    7  1.0000    8  1.0000    8  1.0000
    9  1.0000    9  1.0000   10  1.0000   10  1.0000   11  1.0000   11  1.0000
   12  1.0000   12  1.0000
   6    1  0.0000    2  0.0000    2  0.0000    3  0.0000    3  0.0000    4  0.0000
    4  0.0000    5  1.0000    7  1.0000    7  1.0000    8  1.0000    8  1.0000
    9  1.0000    9  1.0000   10  1.0000   10  1.0000   11  1.0000   11  1.0000
   12  1.0000   12  1.0000
   7    1  0.0000    1  0.0000    2  0.0000    3  0.0000    3  0.0000    4  0.0000
    4  0.0000    5  1.0000    5  1.0000    6  1.0000    6  1.0000    8  1.0000
    9  1.0000    9  1.0000   10  1.0000   10  1.0000   11  1.0000   11  1.0000
   12  1.0000   12  1.0000
   8    1  0.0000    1  0.0000    2  0.0000    3  0.0000    3  0.0000    4  0.0000
    4  0.0000    5  1.0000    5  1.0000    6  1.0000    6  1.0000    7  1.0000
    9  1.0000    9  1.0000   10  1.0000   10  1.0000   11  1.0000   11  1.0000
   12  1.0000   12  1.0000
   9    1  0.0000    1  0.0000    2  0.0000    2  0.0000    3  0.0000    4  0.0000
    4  0.0000    5  1.0000    5  1.0000    6  1.0000    6  1.0000    7  1.0000
    7  1.0000    8  1.0000    8  1.0000   10  1.0000   11  1.0000   11  1.0000
   12  1.0000   12  1.0000
  10    1  0.0000    1  0.0000    2  0.0000    2  0.0000    3  0.0000    4  0.0000
    4  0.0000    5  1.0000    5  1.0000    6  1.0000    6  1.0000    7  1.0000
    7  1.0000    8  1.0000    8  1.0000    9  1.0000   11  1.0000   11  1.0000
   12  1.0000   12  1.0000
  11    1  0.0000    1  0.0000    2  0.0000    2  0.0000    3  0.0000    3  0.0000
    4  0.0000    5  1.0000    5  1.0000    6  1.0000    6  1.0000    7  1.0000
    7  1.0000    8  1.0000    8  1.0000    9  1.0000    9  1.0000   10  1.0000
   10  1.0000   12  1.0000
  12    1  0.0000    1  0.0000    2  0.0000    2  0.0000    3  0.0000    3  0.0000
    4  0.0000    5  1.0000    5  1.0000    6  1.0000    6  1.0000    7  1.0000
    7  1.0000    8  1.0000    8  1.0000    9  1.0000    9  1.0000   10  1.0000
   10  1.0000   11  1.0000



  ReaxFF: Delta and Bond Order: 

   1  2.711079    2  0.0019    2  0.0019    2  0.0019    2  0.0019    3  0.0019    3  0.0019
    3  0.0019    3  0.0019    4  0.0019    4  0.0019    4  0.0019    4  0.0019
    5  0.2299    6  0.2299    7  0.0097    7  0.8618    8  0.8618    8  0.0097
    9  0.0097    9  0.8618   10  0.8618   10  0.0097   11  0.0097   11  0.8618
   12  0.8618   12  0.0097
   2  2.711079    1  0.0019    1  0.0019    1  0.0019    1  0.0019    3  0.0019    3  0.0019
    3  0.0019    3  0.0019    4  0.0019    4  0.0019    4  0.0019    4  0.0019
    5  0.8618    5  0.0097    6  0.0097    6  0.8618    7  0.2299    8  0.2299
    9  0.0097    9  0.8618   10  0.8618   10  0.0097   11  0.8618   11  0.0097
   12  0.0097   12  0.8618
[...]
   2    5  0.0000    6  0.0000    7  0.0000    8  0.0000    9  0.0000   10  0.0000
   11  0.0000   12  0.0000
   3    5  0.0000    6  0.0000    7  0.0000    8  0.0000    9  0.0000   10  0.0000
   11  0.0000   12  0.0000
   4    5  0.0000    6  0.0000    7  0.0000    8  0.0000    9  0.0000   10  0.0000
   11  0.0000   12  0.0000
   5    1  0.0000    2  0.0000    3  0.0000    4  0.0000    8  1.0000    8  1.0000
   10  1.0000   10  1.0000   12  1.0000   12  1.0000
   6    1  0.0000    2  0.0000    3  0.0000    4  0.0000    7  1.0000    7  1.0000
    9  1.0000    9  1.0000   11  1.0000   11  1.0000
   7    1  0.0000    2  0.0000    3  0.0000    4  0.0000    6  1.0000    6  1.0000
   10  1.0000   10  1.0000   12  1.0000   12  1.0000
   8    1  0.0000    2  0.0000    3  0.0000    4  0.0000    5  1.0000    5  1.0000
    9  1.0000    9  1.0000   11  1.0000   11  1.0000
   9    1  0.0000    2  0.0000    3  0.0000    4  0.0000    6  1.0000    6  1.0000
    8  1.0000    8  1.0000   12  1.0000   12  1.0000
  10    1  0.0000    2  0.0000    3  0.0000    4  0.0000    5  1.0000    5  1.0000
    7  1.0000    7  1.0000   11  1.0000   11  1.0000
  11    1  0.0000    2  0.0000    3  0.0000    4  0.0000    6  1.0000    6  1.0000
    8  1.0000    8  1.0000   10  1.0000   10  1.0000
  12    1  0.0000    2  0.0000    3  0.0000    4  0.0000    5  1.0000    5  1.0000
    7  1.0000    7  1.0000    9  1.0000    9  1.0000



  ReaxFF: Delta and Bond Order: 

   1  3.107535    5  0.7637    6  0.7637    7  0.7634    8  0.7634    9  0.7634   10  0.7634
   11  0.7634   12  0.7634
   2  3.107535    5  0.7634    6  0.7634    7  0.7637    8  0.7637    9  0.7634   10  0.7634
   11  0.7634   12  0.7634
   3  3.107535    5  0.7634    6  0.7634    7  0.7634    8  0.7634    9  0.7637   10  0.7637
   11  0.7634   12  0.7634
   4  3.107535    5  0.7634    6  0.7634    7  0.7634    8  0.7634    9  0.7634   10  0.7634
   11  0.7637   12  0.7637
   5  2.464182    1  0.7637    2  0.7634    3  0.7634    4  0.7634    8  0.2351    8  0.2351
   10  0.2351   10  0.2351   12  0.2351   12  0.2351
   6  2.464182    1  0.7637    2  0.7634    3  0.7634    4  0.7634    7  0.2351    7  0.2351
    9  0.2351    9  0.2351   11  0.2351   11  0.2351
   7  2.464182    1  0.7634    2  0.7637    3  0.7634    4  0.7634    6  0.2351    6  0.2351
   10  0.2351   10  0.2351   12  0.2351   12  0.2351
   8  2.464182    1  0.7634    2  0.7637    3  0.7634    4  0.7634    5  0.2351    5  0.2351
    9  0.2351    9  0.2351   11  0.2351   11  0.2351
   9  2.464182    1  0.7634    2  0.7634    3  0.7637    4  0.7634    6  0.2351    6  0.2351
    8  0.2351    8  0.2351   12  0.2351   12  0.2351
  10  2.464182    1  0.7634    2  0.7634    3  0.7637    4  0.7634    5  0.2351    5  0.2351
    7  0.2351    7  0.2351   11  0.2351   11  0.2351
  11  2.464182    1  0.7634    2  0.7634    3  0.7634    4  0.7637    6  0.2351    6  0.2351
    8  0.2351    8  0.2351   10  0.2351   10  0.2351
  12  2.464182    1  0.7634    2  0.7634    3  0.7634    4  0.7637    5  0.2351    5  0.2351
    7  0.2351    7  0.2351    9  0.2351    9  0.2351

  ReaxFF: Delta lone pair: 

   1  1.000000
   2  1.000000
   3  1.000000
   4  1.000000
   5  1.730716
   6  1.730716
   7  1.730716
   8  1.730716
   9  1.730716
  10  1.730716
  11  1.730716
  12  1.730716


  ReaxFF : Energy contributions: 

  E(bond)     =     -89.68224006 eV =    -2068.1083286 kcal
  E(bpen)     =       0.00000000 eV =        0.0000000 kcal
  E(lonepair) =       2.10108165 eV =       48.4517832 kcal
  E(over)     =      17.35936690 eV =      400.3139446 kcal
  E(under)    =       0.00000000 eV =        0.0000000 kcal
  E(val)      =      25.48551722 eV =      587.7062212 kcal
  E(pen)      =       0.00000000 eV =        0.0000000 kcal
  E(coa)      =       0.00000000 eV =        0.0000000 kcal
  E(tors)     =       8.40467698 eV =      193.8152131 kcal
  E(conj)     =       0.00000000 eV =        0.0000000 kcal
  E(hb)       =       0.00000000 eV =        0.0000000 kcal
  E(vdw)      =       3.38859863 eV =       78.1424399 kcal
  E(coulomb)  =      -3.11597187 eV =      -71.8555578 kcal
  E(self)     =      -0.25545278 eV =       -5.8908433 kcal

  ReaxFF: Delta and Bond Order prime: 

   1  3.107535    5  0.7637    6  0.7637    7  0.7634    8  0.7634    9  0.7634   10  0.7634
   11  0.7634   12  0.7634
   2  3.107535    5  0.7634    6  0.7634    7  0.7637    8  0.7637    9  0.7634   10  0.7634
   11  0.7634   12  0.7634
   3  3.107535    5  0.7634    6  0.7634    7  0.7634    8  0.7634    9  0.7637   10  0.7637
   11  0.7634   12  0.7634
   4  3.107535    5  0.7634    6  0.7634    7  0.7634    8  0.7634    9  0.7634   10  0.7634
   11  0.7637   12  0.7637
   5  8.359029    1  0.7637    2  0.7634    3  0.7634    4  0.7634    8  1.2175    8  1.2175
   10  1.2175   10  1.2175   12  1.2175   12  1.2175
   6  8.359029    1  0.7637    2  0.7634    3  0.7634    4  0.7634    7  1.2175    7  1.2175
    9  1.2175    9  1.2175   11  1.2175   11  1.2175
   7  8.359029    1  0.7634    2  0.7637    3  0.7634    4  0.7634    6  1.2175    6  1.2175
   10  1.2175   10  1.2175   12  1.2175   12  1.2175
   8  8.359029    1  0.7634    2  0.7637    3  0.7634    4  0.7634    5  1.2175    5  1.2175
    9  1.2175    9  1.2175   11  1.2175   11  1.2175
   9  8.359029    1  0.7634    2  0.7634    3  0.7637    4  0.7634    6  1.2175    6  1.2175
    8  1.2175    8  1.2175   12  1.2175   12  1.2175
  10  8.359029    1  0.7634    2  0.7634    3  0.7637    4  0.7634    5  1.2175    5  1.2175
    7  1.2175    7  1.2175   11  1.2175   11  1.2175
  11  8.359029    1  0.7634    2  0.7634    3  0.7634    4  0.7637    6  1.2175    6  1.2175
    8  1.2175    8  1.2175   10  1.2175   10  1.2175
  12  8.359029    1  0.7634    2  0.7634    3  0.7634    4  0.7637    5  1.2175    5  1.2175
    7  1.2175    7  1.2175    9  1.2175    9  1.2175

  ReaxFF: Bond Order sigma prime: 

   1    5  0.7637    6  0.7637    7  0.7634    8  0.7634    9  0.7634   10  0.7634
   11  0.7634   12  0.7634
   2    5  0.7634    6  0.7634    7  0.7637    8  0.7637    9  0.7634   10  0.7634
   11  0.7634   12  0.7634
   3    5  0.7634    6  0.7634    7  0.7634    8  0.7634    9  0.7637   10  0.7637
   11  0.7634   12  0.7634
   4    5  0.7634    6  0.7634    7  0.7634    8  0.7634    9  0.7634   10  0.7634
   11  0.7637   12  0.7637
   5    1  0.7637    2  0.7634    3  0.7634    4  0.7634    8  0.2175    8  0.2175
   10  0.2175   10  0.2175   12  0.2175   12  0.2175
   6    1  0.7637    2  0.7634    3  0.7634    4  0.7634    7  0.2175    7  0.2175
    9  0.2175    9  0.2175   11  0.2175   11  0.2175
   7    1  0.7634    2  0.7637    3  0.7634    4  0.7634    6  0.2175    6  0.2175
   10  0.2175   10  0.2175   12  0.2175   12  0.2175
   8    1  0.7634    2  0.7637    3  0.7634    4  0.7634    5  0.2175    5  0.2175
    9  0.2175    9  0.2175   11  0.2175   11  0.2175
   9    1  0.7634    2  0.7634    3  0.7637    4  0.7634    6  0.2175    6  0.2175
    8  0.2175    8  0.2175   12  0.2175   12  0.2175
  10    1  0.7634    2  0.7634    3  0.7637    4  0.7634    5  0.2175    5  0.2175
    7  0.2175    7  0.2175   11  0.2175   11  0.2175
  11    1  0.7634    2  0.7634    3  0.7634    4  0.7637    6  0.2175    6  0.2175
    8  0.2175    8  0.2175   10  0.2175   10  0.2175
  12    1  0.7634    2  0.7634    3  0.7634    4  0.7637    5  0.2175    5  0.2175
    7  0.2175    7  0.2175    9  0.2175    9  0.2175

  ReaxFF: Bond Order pi prime: 

   1    5  0.0000    6  0.0000    7  0.0000    8  0.0000    9  0.0000   10  0.0000
   11  0.0000   12  0.0000
   2    5  0.0000    6  0.0000    7  0.0000    8  0.0000    9  0.0000   10  0.0000
   11  0.0000   12  0.0000
   3    5  0.0000    6  0.0000    7  0.0000    8  0.0000    9  0.0000   10  0.0000
   11  0.0000   12  0.0000
   4    5  0.0000    6  0.0000    7  0.0000    8  0.0000    9  0.0000   10  0.0000
   11  0.0000   12  0.0000
   5    1  0.0000    2  0.0000    3  0.0000    4  0.0000    8  0.0000    8  0.0000
   10  0.0000   10  0.0000   12  0.0000   12  0.0000
   6    1  0.0000    2  0.0000    3  0.0000    4  0.0000    7  0.0000    7  0.0000
    9  0.0000    9  0.0000   11  0.0000   11  0.0000
   7    1  0.0000    2  0.0000    3  0.0000    4  0.0000    6  0.0000    6  0.0000
   10  0.0000   10  0.0000   12  0.0000   12  0.0000
   8    1  0.0000    2  0.0000    3  0.0000    4  0.0000    5  0.0000    5  0.0000
    9  0.0000    9  0.0000   11  0.0000   11  0.0000
   9    1  0.0000    2  0.0000    3  0.0000    4  0.0000    6  0.0000    6  0.0000
    8  0.0000    8  0.0000   12  0.0000   12  0.0000
  10    1  0.0000    2  0.0000    3  0.0000    4  0.0000    5  0.0000    5  0.0000
    7  0.0000    7  0.0000   11  0.0000   11  0.0000
  11    1  0.0000    2  0.0000    3  0.0000    4  0.0000    6  0.0000    6  0.0000
    8  0.0000    8  0.0000   10  0.0000   10  0.0000
  12    1  0.0000    2  0.0000    3  0.0000    4  0.0000    5  0.0000    5  0.0000
    7  0.0000    7  0.0000    9  0.0000    9  0.0000

  ReaxFF: Bond Order pi-pi prime: 

   1    5  0.0000    6  0.0000    7  0.0000    8  0.0000    9  0.0000   10  0.0000
   11  0.0000   12  0.0000
   2    5  0.0000    6  0.0000    7  0.0000    8  0.0000    9  0.0000   10  0.0000
   11  0.0000   12  0.0000
   3    5  0.0000    6  0.0000    7  0.0000    8  0.0000    9  0.0000   10  0.0000
   11  0.0000   12  0.0000
   4    5  0.0000    6  0.0000    7  0.0000    8  0.0000    9  0.0000   10  0.0000
   11  0.0000   12  0.0000
   5    1  0.0000    2  0.0000    3  0.0000    4  0.0000    8  1.0000    8  1.0000
   10  1.0000   10  1.0000   12  1.0000   12  1.0000
   6    1  0.0000    2  0.0000    3  0.0000    4  0.0000    7  1.0000    7  1.0000
    9  1.0000    9  1.0000   11  1.0000   11  1.0000
   7    1  0.0000    2  0.0000    3  0.0000    4  0.0000    6  1.0000    6  1.0000
   10  1.0000   10  1.0000   12  1.0000   12  1.0000
   8    1  0.0000    2  0.0000    3  0.0000    4  0.0000    5  1.0000    5  1.0000
    9  1.0000    9  1.0000   11  1.0000   11  1.0000
   9    1  0.0000    2  0.0000    3  0.0000    4  0.0000    6  1.0000    6  1.0000
    8  1.0000    8  1.0000   12  1.0000   12  1.0000
  10    1  0.0000    2  0.0000    3  0.0000    4  0.0000    5  1.0000    5  1.0000
    7  1.0000    7  1.0000   11  1.0000   11  1.0000
  11    1  0.0000    2  0.0000    3  0.0000    4  0.0000    6  1.0000    6  1.0000
    8  1.0000    8  1.0000   10  1.0000   10  1.0000
  12    1  0.0000    2  0.0000    3  0.0000    4  0.0000    5  1.0000    5  1.0000
    7  1.0000    7  1.0000    9  1.0000    9  1.0000



  ReaxFF: Delta and Bond Order: 

   1  3.107535    5  0.7637    6  0.7637    7  0.7634    8  0.7634    9  0.7634   10  0.7634
   11  0.7634   12  0.7634
   2  3.107535    5  0.7634    6  0.7634    7  0.7637    8  0.7637    9  0.7634   10  0.7634
   11  0.7634   12  0.7634
   3  3.107535    5  0.7634    6  0.7634    7  0.7634    8  0.7634    9  0.7637   10  0.7637
   11  0.7634   12  0.7634
   4  3.107535    5  0.7634    6  0.7634    7  0.7634    8  0.7634    9  0.7634   10  0.7634
   11  0.7637   12  0.7637
   5  2.464182    1  0.7637    2  0.7634    3  0.7634    4  0.7634    8  0.2351    8  0.2351
   10  0.2351   10  0.2351   12  0.2351   12  0.2351
   6  2.464182    1  0.7637    2  0.7634    3  0.7634    4  0.7634    7  0.2351    7  0.2351
    9  0.2351    9  0.2351   11  0.2351   11  0.2351
   7  2.464182    1  0.7634    2  0.7637    3  0.7634    4  0.7634    6  0.2351    6  0.2351
   10  0.2351   10  0.2351   12  0.2351   12  0.2351
   8  2.464182    1  0.7634    2  0.7637    3  0.7634    4  0.7634    5  0.2351    5  0.2351
    9  0.2351    9  0.2351   11  0.2351   11  0.2351
   9  2.464182    1  0.7634    2  0.7634    3  0.7637    4  0.7634    6  0.2351    6  0.2351
    8  0.2351    8  0.2351   12  0.2351   12  0.2351
  10  2.464182    1  0.7634    2  0.7634    3  0.7637    4  0.7634    5  0.2351    5  0.2351
    7  0.2351    7  0.2351   11  0.2351   11  0.2351
  11  2.464182    1  0.7634    2  0.7634    3  0.7634    4  0.7637    6  0.2351    6  0.2351
    8  0.2351    8  0.2351   10  0.2351   10  0.2351
  12  2.464182    1  0.7634    2  0.7634    3  0.7634    4  0.7637    5  0.2351    5  0.2351
    7  0.2351    7  0.2351    9  0.2351    9  0.2351

  ReaxFF: Delta lone pair: 

   1  1.000000
   2  1.000000
   3  1.000000
   4  1.000000
   5  1.730716
   6  1.730716
   7  1.730716
   8  1.730716
   9  1.730716
  10  1.730716
  11  1.730716
  12  1.730716


  ReaxFF : Energy contributions: 

  E(bond)     =     -89.68224006 eV =    -2068.1083286 kcal
  E(bpen)     =       0.00000000 eV =        0.0000000 kcal
  E(lonepair) =       2.10108165 eV =       48.4517832 kcal
  E(over)     =      17.35936690 eV =      400.3139446 kcal
  E(under)    =       0.00000000 eV =        0.0000000 kcal
  E(val)      =      25.48551722 eV =      587.7062212 kcal
  E(pen)      =       0.00000000 eV =        0.0000000 kcal
  E(coa)      =       0.00000000 eV =        0.0000000 kcal
  E(tors)     =       8.40467698 eV =      193.8152131 kcal
  E(conj)     =       0.00000000 eV =        0.0000000 kcal
  E(hb)       =       0.00000000 eV =        0.0000000 kcal
  E(vdw)      =       3.38859863 eV =       78.1424399 kcal
  E(coulomb)  =      -3.11597187 eV =      -71.8555578 kcal
  E(self)     =      -0.25545278 eV =       -5.8908433 kcal
  **** Ftol satisfied in optimiser ****
  **** Gmax satisfied in optimiser ****
  **** Gtol satisfied in optimiser ****


  **** Optimisation achieved ****


  Final energy =     -36.31442333 eV
  Final Gnorm  =       0.00035576

  Components of energy : 

--------------------------------------------------------------------------------
  Interatomic potentials     =           0.00000000 eV    
  ReaxFF force field         =         -36.31442333 eV    
  Monopole - monopole (real) =           0.00000000 eV    
  Monopole - monopole (recip)=           0.00000000 eV    
  Monopole - monopole (total)=           0.00000000 eV    
--------------------------------------------------------------------------------
  Total lattice energy       =         -36.31442333 eV    
--------------------------------------------------------------------------------
  Total lattice energy       =           -3503.7867 kJ/(mole unit cells)
--------------------------------------------------------------------------------

  Final fractional coordinates of atoms :

--------------------------------------------------------------------------------
   No.  Atomic        x           y          z          Radius
        Label       (Frac)      (Frac)     (Frac)       (Angs) 
--------------------------------------------------------------------------------
     1  Fe    c     0.000000    0.000000    0.000000    0.000000
     2  Fe    c     0.500000    0.000000    0.500000    0.000000
     3  Fe    c     1.000000    0.500000    0.500000    0.000000
     4  Fe    c     0.500000    0.500000    1.000000    0.000000
     5  S     c     0.249949    0.249949    0.249949    0.000000
     6  S     c     0.750051    0.750051    0.750051    0.000000
     7  S     c     0.250051    0.750051    0.749949    0.000000
     8  S     c     0.749949    0.249949    0.250051    0.000000
     9  S     c     0.750051    0.749949    0.250051    0.000000
    10  S     c     0.249949    0.250051    0.749949    0.000000
    11  S     c     0.749949    0.250051    0.750051    0.000000
    12  S     c     0.250051    0.749949    0.249949    0.000000
--------------------------------------------------------------------------------

  Final Cartesian lattice vectors (Angstroms) :

        5.596069    0.000000   -0.000000
        0.000000    5.596069   -0.000000
       -0.000000   -0.000000    5.596069


  Final cell parameters and derivatives :

--------------------------------------------------------------------------------
       a            5.596069 Angstrom     dE/de1(xx)    -0.000568 eV/strain
       b            5.596069 Angstrom     dE/de2(yy)    -0.000568 eV/strain
       c            5.596069 Angstrom     dE/de3(zz)    -0.000568 eV/strain
       alpha       90.000000 Degrees      dE/de4(yz)    -0.000000 eV/strain
       beta        90.000000 Degrees      dE/de5(xz)    -0.000000 eV/strain
       gamma       90.000000 Degrees      dE/de6(xy)    -0.000000 eV/strain
--------------------------------------------------------------------------------

  Primitive cell volume =           175.246450 Angs**3

  Density of cell =      4.547910 g/cm**3

  Non-primitive cell volume =           175.246450 Angs**3


  Final internal derivatives :

--------------------------------------------------------------------------------
   No.  Atomic          a             b             c           Radius
        Label          (eV)          (eV)          (eV)        (eV/Angs)
--------------------------------------------------------------------------------
      1 Fe    c       0.000000      0.000000      0.000000      0.000000
      2 Fe    c       0.000000     -0.000000     -0.000000      0.000000
      3 Fe    c      -0.000000      0.000000      0.000000      0.000000
      4 Fe    c      -0.000000      0.000000      0.000000      0.000000
      5 S     c      -0.002825     -0.002825     -0.002825      0.000000
      6 S     c       0.002825      0.002825      0.002825      0.000000
      7 S     c       0.002825      0.002825     -0.002825      0.000000
      8 S     c      -0.002825     -0.002825      0.002825      0.000000
      9 S     c       0.002825     -0.002825      0.002825      0.000000
     10 S     c      -0.002825      0.002825     -0.002825      0.000000
     11 S     c      -0.002825      0.002825      0.002825      0.000000
     12 S     c       0.002825     -0.002825     -0.002825      0.000000
--------------------------------------------------------------------------------
  Maximum abs         0.002825      0.002825      0.002825      0.000000
--------------------------------------------------------------------------------


  Time to end of optimisation =       0.6347 seconds



  Final charges from ReaxFF :

--------------------------------------------------------------------------------
    Atom no.            Atomic No.             Charge
--------------------------------------------------------------------------------
         1                  26                 0.3514830
         2                  26                 0.3514830
         3                  26                 0.3514830
         4                  26                 0.3514830
         5                  16                -0.1757415
         6                  16                -0.1757415
         7                  16                -0.1757415
         8                  16                -0.1757415
         9                  16                -0.1757415
        10                  16                -0.1757415
        11                  16                -0.1757415
        12                  16                -0.1757415
--------------------------------------------------------------------------------


  Peak dynamic memory used =       0.51 MB 


  Timing analysis for GULP :

--------------------------------------------------------------------------------
  Task / Subroutine                                          Time (Seconds)
--------------------------------------------------------------------------------
  Calculation of reaxFF energy and derivatives                    0.5762
  Electronegativity equalisation                                  0.0446
--------------------------------------------------------------------------------
  Total CPU time                                                  0.6352
--------------------------------------------------------------------------------


  CIF file written as main.cif                                                
  STR file written as main.str                      


  Job Finished at 02:12.40 20th September  2018                               

