********************************************************************************
*                       GENERAL UTILITY LATTICE PROGRAM                        *
*                                 Julian Gale                                  *
*                       Curtin Institute for Computation                       *
*                           Department of Chemistry                            *
*                    Curtin University, Western Australia                      *
********************************************************************************
* Version = 4.5.3 * Last modified =  19th April 2017                           *
********************************************************************************

  ReaxFF: Bond order cutoffs: 

  Species number =    1   4.04098
  Species number =    2   4.04098


*  optimise     - perform optimisation run                                     *
*  conp         - constant pressure calculation                                *
*  operators    - output bulk symmetry operators                               *
********************************************************************************
* the title                                                                    *
********************************************************************************


  Job Started  at 02:55.20 24th September  2018                               

  Number of CPUs =     1


  Total number of configurations input =   1

********************************************************************************
*  Input for Configuration =   1 : main-geometry                               *
********************************************************************************

  Formula = Fe4S8                                                       

  Number of irreducible atoms/shells =      12


  Total number atoms/shells =      12

  Dimensionality = 3               :  Bulk   



  Cartesian lattice vectors (Angstroms) :

        5.380000    0.000000    0.000000
        0.000000    5.380000    0.000000
        0.000000    0.000000    5.380000

  Cell parameters (Angstroms/Degrees):

  a =       5.3800    alpha =  90.0000
  b =       5.3800    beta  =  90.0000
  c =       5.3800    gamma =  90.0000

  Initial cell volume =         155.720872 Angs**3

  Temperature of configuration =  0.000     K 

  Pressure of configuration =         0.000 GPa 

  Fractional coordinates of asymmetric unit :

--------------------------------------------------------------------------------
   No.  Atomic       x           y          z         Charge      Occupancy
        Label      (Frac)      (Frac)     (Frac)        (e)         (Frac)  
--------------------------------------------------------------------------------
      1 Fe    c    0.000000    0.000000    0.000000     0.00000    1.000000    
      2 Fe    c    0.500000 *  0.000000 *  0.500000 *   0.00000    1.000000    
      3 Fe    c    0.000000 *  0.500000 *  0.500000 *   0.00000    1.000000    
      4 Fe    c    0.500000 *  0.500000 *  0.000000 *   0.00000    1.000000    
      5 S     c    0.338000 *  0.338000 *  0.338000 *   0.00000    1.000000    
      6 S     c    0.662000 *  0.662000 *  0.662000 *   0.00000    1.000000    
      7 S     c    0.162000 *  0.662000 *  0.838000 *   0.00000    1.000000    
      8 S     c    0.838000 *  0.338000 *  0.162000 *   0.00000    1.000000    
      9 S     c    0.662000 *  0.838000 *  0.162000 *   0.00000    1.000000    
     10 S     c    0.338000 *  0.162000 *  0.838000 *   0.00000    1.000000    
     11 S     c    0.838000 *  0.162000 *  0.662000 *   0.00000    1.000000    
     12 S     c    0.162000 *  0.838000 *  0.338000 *   0.00000    1.000000    
--------------------------------------------------------------------------------



********************************************************************************
*  General input information                                                   *
********************************************************************************

  Species output for all configurations : 

--------------------------------------------------------------------------------
  Species    Type    Atomic    Atomic    Charge       Radii (Angs)     Library
                     Number     Mass       (e)     Cova   Ionic  VDW   Symbol
--------------------------------------------------------------------------------
    Fe       Core       26      55.85   0.000000   1.340  0.000  2.000          
    S        Core       16      32.07   0.000000   1.020  0.000  1.700          
--------------------------------------------------------------------------------


  Lattice summation method               =    Ewald          (3-D)
                                         =    Parry          (2-D)
                                         =    Saunders et al (1-D)
  Accuracy factor for lattice sums       =   12.000


  Time limit = Infinity

  ReaxFF: Bond order cutoffs: 

  Species number =    1   4.04098
  Species number =    2   4.04098



  Maximum range for interatomic potentials =    100000.000000 Angstroms

  ReaxFF forcefield to be used

  ReaxFF Coulomb cutoff =  10.0000 Ang
  ReaxFF VDW     cutoff =  10.0000 Ang
  ReaxFF H-bond  cutoff =   7.5000 Ang

  ReaxFF pairwise bond order       threshold = 0.00100000000000
  ReaxFF angle/torsion bond order  threshold = 0.00100000000000
  ReaxFF bond order double product threshold = 0.00000100000000
  ReaxFF bond order triple product threshold = 0.00000000100000
  ReaxFF hydrogen-bond bond order  threshold = 0.01000000000000


********************************************************************************
*  Output for configuration   1 : main-geometry                                *
********************************************************************************


  Increasing maxneigh to     26

  ReaxFF: Delta and Bond Order prime: 

   1  2.764770    2  0.0024    2  0.0024    2  0.0024    2  0.0024    3  0.0024    3  0.0024
    3  0.0024    3  0.0024    4  0.0024    4  0.0024    4  0.0024    4  0.0024
    5  0.2404    6  0.2404    7  0.0108    7  0.8651    8  0.8651    8  0.0108
    9  0.0108    9  0.8651   10  0.8651   10  0.0108   11  0.0108   11  0.8651
   12  0.8651   12  0.0108
   2  2.764770    1  0.0024    1  0.0024    1  0.0024    1  0.0024    3  0.0024    3  0.0024
    3  0.0024    3  0.0024    4  0.0024    4  0.0024    4  0.0024    4  0.0024
    5  0.8651    5  0.0108    6  0.0108    6  0.8651    7  0.2404    8  0.2404
    9  0.0108    9  0.8651   10  0.8651   10  0.0108   11  0.8651   11  0.0108
   12  0.0108   12  0.8651
   3  2.764770    1  0.0024    1  0.0024    1  0.0024    1  0.0024    2  0.0024    2  0.0024
    2  0.0024    2  0.0024    4  0.0024    4  0.0024    4  0.0024    4  0.0024
    5  0.8651    5  0.0108    6  0.0108    6  0.8651    7  0.8651    7  0.0108
    8  0.0108    8  0.8651    9  0.2404   10  0.2404   11  0.0108   11  0.8651
   12  0.8651   12  0.0108
   4  2.764770    1  0.0024    1  0.0024    1  0.0024    1  0.0024    2  0.0024    2  0.0024
    2  0.0024    2  0.0024    3  0.0024    3  0.0024    3  0.0024    3  0.0024
    5  0.8651    5  0.0108    6  0.0108    6  0.8651    7  0.0108    7  0.8651
    8  0.8651    8  0.0108    9  0.8651    9  0.0108   10  0.0108   10  0.8651
   11  0.2404   12  0.2404
   5  2.093572    1  0.2404    2  0.8651    2  0.0108    3  0.8651    3  0.0108    4  0.8651
    4  0.0108    6  0.0873    7  0.0097    7  0.0097    8  0.1800    8  0.1800
    9  0.0097    9  0.0097   10  0.1800   10  0.1800   11  0.0097   11  0.0097
   12  0.1800   12  0.1800
   6  2.093572    1  0.2404    2  0.0108    2  0.8651    3  0.0108    3  0.8651    4  0.0108
    4  0.8651    5  0.0873    7  0.1800    7  0.1800    8  0.0097    8  0.0097
    9  0.1800    9  0.1800   10  0.0097   10  0.0097   11  0.1800   11  0.1800
   12  0.0097   12  0.0097
   7  2.093572    1  0.0108    1  0.8651    2  0.2404    3  0.8651    3  0.0108    4  0.0108
    4  0.8651    5  0.0097    5  0.0097    6  0.1800    6  0.1800    8  0.0873
    9  0.0097    9  0.0097   10  0.1800   10  0.1800   11  0.0097   11  0.0097
   12  0.1800   12  0.1800
   8  2.093572    1  0.8651    1  0.0108    2  0.2404    3  0.0108    3  0.8651    4  0.8651
    4  0.0108    5  0.1800    5  0.1800    6  0.0097    6  0.0097    7  0.0873
    9  0.1800    9  0.1800   10  0.0097   10  0.0097   11  0.1800   11  0.1800
   12  0.0097   12  0.0097
   9  2.093572    1  0.0108    1  0.8651    2  0.0108    2  0.8651    3  0.2404    4  0.8651
    4  0.0108    5  0.0097    5  0.0097    6  0.1800    6  0.1800    7  0.0097
    7  0.0097    8  0.1800    8  0.1800   10  0.0873   11  0.0097   11  0.0097
   12  0.1800   12  0.1800
  10  2.093572    1  0.8651    1  0.0108    2  0.8651    2  0.0108    3  0.2404    4  0.0108
    4  0.8651    5  0.1800    5  0.1800    6  0.0097    6  0.0097    7  0.1800
    7  0.1800    8  0.0097    8  0.0097    9  0.0873   11  0.1800   11  0.1800
   12  0.0097   12  0.0097
  11  2.093572    1  0.0108    1  0.8651    2  0.8651    2  0.0108    3  0.0108    3  0.8651
    4  0.2404    5  0.0097    5  0.0097    6  0.1800    6  0.1800    7  0.0097
    7  0.0097    8  0.1800    8  0.1800    9  0.0097    9  0.0097   10  0.1800
   10  0.1800   12  0.0873
  12  2.093572    1  0.8651    1  0.0108    2  0.0108    2  0.8651    3  0.8651    3  0.0108
    4  0.2404    5  0.1800    5  0.1800    6  0.0097    6  0.0097    7  0.1800
    7  0.1800    8  0.0097    8  0.0097    9  0.1800    9  0.1800   10  0.0097
   10  0.0097   11  0.0873

  ReaxFF: Bond Order sigma prime: 

   1    2  0.0024    2  0.0024    2  0.0024    2  0.0024    3  0.0024    3  0.0024
    3  0.0024    3  0.0024    4  0.0024    4  0.0024    4  0.0024    4  0.0024
    5  0.2404    6  0.2404    7  0.0108    7  0.8651    8  0.8651    8  0.0108
    9  0.0108    9  0.8651   10  0.8651   10  0.0108   11  0.0108   11  0.8651
   12  0.8651   12  0.0108
   2    1  0.0024    1  0.0024    1  0.0024    1  0.0024    3  0.0024    3  0.0024
    3  0.0024    3  0.0024    4  0.0024    4  0.0024    4  0.0024    4  0.0024
    5  0.8651    5  0.0108    6  0.0108    6  0.8651    7  0.2404    8  0.2404
    9  0.0108    9  0.8651   10  0.8651   10  0.0108   11  0.8651   11  0.0108
   12  0.0108   12  0.8651
   3    1  0.0024    1  0.0024    1  0.0024    1  0.0024    2  0.0024    2  0.0024
    2  0.0024    2  0.0024    4  0.0024    4  0.0024    4  0.0024    4  0.0024
    5  0.8651    5  0.0108    6  0.0108    6  0.8651    7  0.8651    7  0.0108
    8  0.0108    8  0.8651    9  0.2404   10  0.2404   11  0.0108   11  0.8651
   12  0.8651   12  0.0108
   4    1  0.0024    1  0.0024    1  0.0024    1  0.0024    2  0.0024    2  0.0024
    2  0.0024    2  0.0024    3  0.0024    3  0.0024    3  0.0024    3  0.0024
    5  0.8651    5  0.0108    6  0.0108    6  0.8651    7  0.0108    7  0.8651
    8  0.8651    8  0.0108    9  0.8651    9  0.0108   10  0.0108   10  0.8651
   11  0.2404   12  0.2404
   5    1  0.2404    2  0.8651    2  0.0108    3  0.8651    3  0.0108    4  0.8651
    4  0.0108    6  0.0873    7  0.0097    7  0.0097    8  0.1800    8  0.1800
    9  0.0097    9  0.0097   10  0.1800   10  0.1800   11  0.0097   11  0.0097
   12  0.1800   12  0.1800
   6    1  0.2404    2  0.0108    2  0.8651    3  0.0108    3  0.8651    4  0.0108
    4  0.8651    5  0.0873    7  0.1800    7  0.1800    8  0.0097    8  0.0097
    9  0.1800    9  0.1800   10  0.0097   10  0.0097   11  0.1800   11  0.1800
   12  0.0097   12  0.0097
   7    1  0.0108    1  0.8651    2  0.2404    3  0.8651    3  0.0108    4  0.0108
    4  0.8651    5  0.0097    5  0.0097    6  0.1800    6  0.1800    8  0.0873
    9  0.0097    9  0.0097   10  0.1800   10  0.1800   11  0.0097   11  0.0097
   12  0.1800   12  0.1800
   8    1  0.8651    1  0.0108    2  0.2404    3  0.0108    3  0.8651    4  0.8651
    4  0.0108    5  0.1800    5  0.1800    6  0.0097    6  0.0097    7  0.0873
    9  0.1800    9  0.1800   10  0.0097   10  0.0097   11  0.1800   11  0.1800
   12  0.0097   12  0.0097
   9    1  0.0108    1  0.8651    2  0.0108    2  0.8651    3  0.2404    4  0.8651
    4  0.0108    5  0.0097    5  0.0097    6  0.1800    6  0.1800    7  0.0097
    7  0.0097    8  0.1800    8  0.1800   10  0.0873   11  0.0097   11  0.0097
   12  0.1800   12  0.1800
  10    1  0.8651    1  0.0108    2  0.8651    2  0.0108    3  0.2404    4  0.0108
    4  0.8651    5  0.1800    5  0.1800    6  0.0097    6  0.0097    7  0.1800
    7  0.1800    8  0.0097    8  0.0097    9  0.0873   11  0.1800   11  0.1800
   12  0.0097   12  0.0097
  11    1  0.0108    1  0.8651    2  0.8651    2  0.0108    3  0.0108    3  0.8651
    4  0.2404    5  0.0097    5  0.0097    6  0.1800    6  0.1800    7  0.0097
    7  0.0097    8  0.1800    8  0.1800    9  0.0097    9  0.0097   10  0.1800
   10  0.1800   12  0.0873
  12    1  0.8651    1  0.0108    2  0.0108    2  0.8651    3  0.8651    3  0.0108
    4  0.2404    5  0.1800    5  0.1800    6  0.0097    6  0.0097    7  0.1800
    7  0.1800    8  0.0097    8  0.0097    9  0.1800    9  0.1800   10  0.0097
   10  0.0097   11  0.0873

  ReaxFF: Bond Order pi prime: 

   1    2  0.0000    2  0.0000    2  0.0000    2  0.0000    3  0.0000    3  0.0000
    3  0.0000    3  0.0000    4  0.0000    4  0.0000    4  0.0000    4  0.0000
    5  0.0000    6  0.0000    7  0.0000    7  0.0000    8  0.0000    8  0.0000
    9  0.0000    9  0.0000   10  0.0000   10  0.0000   11  0.0000   11  0.0000
   12  0.0000   12  0.0000
   2    1  0.0000    1  0.0000    1  0.0000    1  0.0000    3  0.0000    3  0.0000
    3  0.0000    3  0.0000    4  0.0000    4  0.0000    4  0.0000    4  0.0000
    5  0.0000    5  0.0000    6  0.0000    6  0.0000    7  0.0000    8  0.0000
    9  0.0000    9  0.0000   10  0.0000   10  0.0000   11  0.0000   11  0.0000
   12  0.0000   12  0.0000
   3    1  0.0000    1  0.0000    1  0.0000    1  0.0000    2  0.0000    2  0.0000
    2  0.0000    2  0.0000    4  0.0000    4  0.0000    4  0.0000    4  0.0000
    5  0.0000    5  0.0000    6  0.0000    6  0.0000    7  0.0000    7  0.0000
    8  0.0000    8  0.0000    9  0.0000   10  0.0000   11  0.0000   11  0.0000
   12  0.0000   12  0.0000
   4    1  0.0000    1  0.0000    1  0.0000    1  0.0000    2  0.0000    2  0.0000
    2  0.0000    2  0.0000    3  0.0000    3  0.0000    3  0.0000    3  0.0000
    5  0.0000    5  0.0000    6  0.0000    6  0.0000    7  0.0000    7  0.0000
    8  0.0000    8  0.0000    9  0.0000    9  0.0000   10  0.0000   10  0.0000
   11  0.0000   12  0.0000
   5    1  0.0000    2  0.0000    2  0.0000    3  0.0000    3  0.0000    4  0.0000
    4  0.0000    6  0.0000    7  0.0000    7  0.0000    8  0.0000    8  0.0000
    9  0.0000    9  0.0000   10  0.0000   10  0.0000   11  0.0000   11  0.0000
   12  0.0000   12  0.0000
   6    1  0.0000    2  0.0000    2  0.0000    3  0.0000    3  0.0000    4  0.0000
    4  0.0000    5  0.0000    7  0.0000    7  0.0000    8  0.0000    8  0.0000
    9  0.0000    9  0.0000   10  0.0000   10  0.0000   11  0.0000   11  0.0000
   12  0.0000   12  0.0000
   7    1  0.0000    1  0.0000    2  0.0000    3  0.0000    3  0.0000    4  0.0000
    4  0.0000    5  0.0000    5  0.0000    6  0.0000    6  0.0000    8  0.0000
    9  0.0000    9  0.0000   10  0.0000   10  0.0000   11  0.0000   11  0.0000
   12  0.0000   12  0.0000
   8    1  0.0000    1  0.0000    2  0.0000    3  0.0000    3  0.0000    4  0.0000
    4  0.0000    5  0.0000    5  0.0000    6  0.0000    6  0.0000    7  0.0000
    9  0.0000    9  0.0000   10  0.0000   10  0.0000   11  0.0000   11  0.0000
   12  0.0000   12  0.0000
   9    1  0.0000    1  0.0000    2  0.0000    2  0.0000    3  0.0000    4  0.0000
    4  0.0000    5  0.0000    5  0.0000    6  0.0000    6  0.0000    7  0.0000
    7  0.0000    8  0.0000    8  0.0000   10  0.0000   11  0.0000   11  0.0000
   12  0.0000   12  0.0000
  10    1  0.0000    1  0.0000    2  0.0000    2  0.0000    3  0.0000    4  0.0000
    4  0.0000    5  0.0000    5  0.0000    6  0.0000    6  0.0000    7  0.0000
    7  0.0000    8  0.0000    8  0.0000    9  0.0000   11  0.0000   11  0.0000
   12  0.0000   12  0.0000
  11    1  0.0000    1  0.0000    2  0.0000    2  0.0000    3  0.0000    3  0.0000
    4  0.0000    5  0.0000    5  0.0000    6  0.0000    6  0.0000    7  0.0000
    7  0.0000    8  0.0000    8  0.0000    9  0.0000    9  0.0000   10  0.0000
   10  0.0000   12  0.0000
  12    1  0.0000    1  0.0000    2  0.0000    2  0.0000    3  0.0000    3  0.0000
    4  0.0000    5  0.0000    5  0.0000    6  0.0000    6  0.0000    7  0.0000
    7  0.0000    8  0.0000    8  0.0000    9  0.0000    9  0.0000   10  0.0000
   10  0.0000   11  0.0000

  ReaxFF: Bond Order pi-pi prime: 

   1    2  0.0000    2  0.0000    2  0.0000    2  0.0000    3  0.0000    3  0.0000
    3  0.0000    3  0.0000    4  0.0000    4  0.0000    4  0.0000    4  0.0000
    5  0.0000    6  0.0000    7  0.0000    7  0.0000    8  0.0000    8  0.0000
    9  0.0000    9  0.0000   10  0.0000   10  0.0000   11  0.0000   11  0.0000
   12  0.0000   12  0.0000
   2    1  0.0000    1  0.0000    1  0.0000    1  0.0000    3  0.0000    3  0.0000
    3  0.0000    3  0.0000    4  0.0000    4  0.0000    4  0.0000    4  0.0000
    5  0.0000    5  0.0000    6  0.0000    6  0.0000    7  0.0000    8  0.0000
    9  0.0000    9  0.0000   10  0.0000   10  0.0000   11  0.0000   11  0.0000
   12  0.0000   12  0.0000
   3    1  0.0000    1  0.0000    1  0.0000    1  0.0000    2  0.0000    2  0.0000
    2  0.0000    2  0.0000    4  0.0000    4  0.0000    4  0.0000    4  0.0000
    5  0.0000    5  0.0000    6  0.0000    6  0.0000    7  0.0000    7  0.0000
    8  0.0000    8  0.0000    9  0.0000   10  0.0000   11  0.0000   11  0.0000
   12  0.0000   12  0.0000
   4    1  0.0000    1  0.0000    1  0.0000    1  0.0000    2  0.0000    2  0.0000
    2  0.0000    2  0.0000    3  0.0000    3  0.0000    3  0.0000    3  0.0000
    5  0.0000    5  0.0000    6  0.0000    6  0.0000    7  0.0000    7  0.0000
    8  0.0000    8  0.0000    9  0.0000    9  0.0000   10  0.0000   10  0.0000
   11  0.0000   12  0.0000
   5    1  0.0000    2  0.0000    2  0.0000    3  0.0000    3  0.0000    4  0.0000
    4  0.0000    6  0.0000    7  0.0000    7  0.0000    8  0.0000    8  0.0000
    9  0.0000    9  0.0000   10  0.0000   10  0.0000   11  0.0000   11  0.0000
   12  0.0000   12  0.0000
   6    1  0.0000    2  0.0000    2  0.0000    3  0.0000    3  0.0000    4  0.0000
    4  0.0000    5  0.0000    7  0.0000    7  0.0000    8  0.0000    8  0.0000
    9  0.0000    9  0.0000   10  0.0000   10  0.0000   11  0.0000   11  0.0000
   12  0.0000   12  0.0000
   7    1  0.0000    1  0.0000    2  0.0000    3  0.0000    3  0.0000    4  0.0000
    4  0.0000    5  0.0000    5  0.0000    6  0.0000    6  0.0000    8  0.0000
    9  0.0000    9  0.0000   10  0.0000   10  0.0000   11  0.0000   11  0.0000
   12  0.0000   12  0.0000
   8    1  0.0000    1  0.0000    2  0.0000    3  0.0000    3  0.0000    4  0.0000
    4  0.0000    5  0.0000    5  0.0000    6  0.0000    6  0.0000    7  0.0000
    9  0.0000    9  0.0000   10  0.0000   10  0.0000   11  0.0000   11  0.0000
   12  0.0000   12  0.0000
   9    1  0.0000    1  0.0000    2  0.0000    2  0.0000    3  0.0000    4  0.0000
    4  0.0000    5  0.0000    5  0.0000    6  0.0000    6  0.0000    7  0.0000
    7  0.0000    8  0.0000    8  0.0000   10  0.0000   11  0.0000   11  0.0000
   12  0.0000   12  0.0000
  10    1  0.0000    1  0.0000    2  0.0000    2  0.0000    3  0.0000    4  0.0000
    4  0.0000    5  0.0000    5  0.0000    6  0.0000    6  0.0000    7  0.0000
    7  0.0000    8  0.0000    8  0.0000    9  0.0000   11  0.0000   11  0.0000
   12  0.0000   12  0.0000
  11    1  0.0000    1  0.0000    2  0.0000    2  0.0000    3  0.0000    3  0.0000
    4  0.0000    5  0.0000    5  0.0000    6  0.0000    6  0.0000    7  0.0000
    7  0.0000    8  0.0000    8  0.0000    9  0.0000    9  0.0000   10  0.0000
   10  0.0000   12  0.0000
  12    1  0.0000    1  0.0000    2  0.0000    2  0.0000    3  0.0000    3  0.0000
    4  0.0000    5  0.0000    5  0.0000    6  0.0000    6  0.0000    7  0.0000
    7  0.0000    8  0.0000    8  0.0000    9  0.0000    9  0.0000   10  0.0000
   10  0.0000   11  0.0000



  ReaxFF: Delta and Bond Order: 

   1  2.764770    2  0.0024    2  0.0024    2  0.0024    2  0.0024    3  0.0024    3  0.0024
    3  0.0024    3  0.0024    4  0.0024    4  0.0024    4  0.0024    4  0.0024
    5  0.2404    6  0.2404    7  0.0108    7  0.8651    8  0.8651    8  0.0108
    9  0.0108    9  0.8651   10  0.8651   10  0.0108   11  0.0108   11  0.8651
   12  0.8651   12  0.0108
   2  2.764770    1  0.0024    1  0.0024    1  0.0024    1  0.0024    3  0.0024    3  0.0024
    3  0.0024    3  0.0024    4  0.0024    4  0.0024    4  0.0024    4  0.0024
    5  0.8651    5  0.0108    6  0.0108    6  0.8651    7  0.2404    8  0.2404
    9  0.0108    9  0.8651   10  0.8651   10  0.0108   11  0.8651   11  0.0108
   12  0.0108   12  0.8651
   3  2.764770    1  0.0024    1  0.0024    1  0.0024    1  0.0024    2  0.0024    2  0.0024
    2  0.0024    2  0.0024    4  0.0024    4  0.0024    4  0.0024    4  0.0024
    5  0.8651    5  0.0108    6  0.0108    6  0.8651    7  0.8651    7  0.0108
    8  0.0108    8  0.8651    9  0.2404   10  0.2404   11  0.0108   11  0.8651
   12  0.8651   12  0.0108
   4  2.764770    1  0.0024    1  0.0024    1  0.0024    1  0.0024    2  0.0024    2  0.0024
    2  0.0024    2  0.0024    3  0.0024    3  0.0024    3  0.0024    3  0.0024
    5  0.8651    5  0.0108    6  0.0108    6  0.8651    7  0.0108    7  0.8651
    8  0.8651    8  0.0108    9  0.8651    9  0.0108   10  0.0108   10  0.8651
   11  0.2404   12  0.2404
   5  1.466869    1  0.2404    2  0.8651    2  0.0108    3  0.8651    3  0.0108    4  0.8651
    4  0.0108    6  0.0426    7  0.0048    7  0.0048    8  0.0879    8  0.0879
    9  0.0048    9  0.0048   10  0.0879   10  0.0879   11  0.0048   11  0.0048
   12  0.0879   12  0.0879
   6  1.466869    1  0.2404    2  0.0108    2  0.8651    3  0.0108    3  0.8651    4  0.0108
    4  0.8651    5  0.0426    7  0.0879    7  0.0879    8  0.0048    8  0.0048
    9  0.0879    9  0.0879   10  0.0048   10  0.0048   11  0.0879   11  0.0879
   12  0.0048   12  0.0048
   7  1.466869    1  0.0108    1  0.8651    2  0.2404    3  0.8651    3  0.0108    4  0.0108
    4  0.8651    5  0.0048    5  0.0048    6  0.0879    6  0.0879    8  0.0426
    9  0.0048    9  0.0048   10  0.0879   10  0.0879   11  0.0048   11  0.0048
   12  0.0879   12  0.0879
   8  1.466869    1  0.8651    1  0.0108    2  0.2404    3  0.0108    3  0.8651    4  0.8651
    4  0.0108    5  0.0879    5  0.0879    6  0.0048    6  0.0048    7  0.0426
    9  0.0879    9  0.0879   10  0.0048   10  0.0048   11  0.0879   11  0.0879
   12  0.0048   12  0.0048
   9  1.466869    1  0.0108    1  0.8651    2  0.0108    2  0.8651    3  0.2404    4  0.8651
    4  0.0108    5  0.0048    5  0.0048    6  0.0879    6  0.0879    7  0.0048
    7  0.0048    8  0.0879    8  0.0879   10  0.0426   11  0.0048   11  0.0048
   12  0.0879   12  0.0879
  10  1.466869    1  0.8651    1  0.0108    2  0.8651    2  0.0108    3  0.2404    4  0.0108
    4  0.8651    5  0.0879    5  0.0879    6  0.0048    6  0.0048    7  0.0879
    7  0.0879    8  0.0048    8  0.0048    9  0.0426   11  0.0879   11  0.0879
   12  0.0048   12  0.0048
  11  1.466869    1  0.0108    1  0.8651    2  0.8651    2  0.0108    3  0.0108    3  0.8651
    4  0.2404    5  0.0048    5  0.0048    6  0.0879    6  0.0879    7  0.0048
    7  0.0048    8  0.0879    8  0.0879    9  0.0048    9  0.0048   10  0.0879
   10  0.0879   12  0.0426
  12  1.466869    1  0.8651    1  0.0108    2  0.0108    2  0.8651    3  0.8651    3  0.0108
    4  0.2404    5  0.0879    5  0.0879    6  0.0048    6  0.0048    7  0.0879
    7  0.0879    8  0.0048    8  0.0048    9  0.0879    9  0.0879   10  0.0048
   10  0.0048   11  0.0426

  ReaxFF: Delta lone pair: 

   1  1.000000
   2  1.000000
   3  1.000000
   4  1.000000
   5  0.999998
   6  0.999998
   7  0.999998
   8  0.999998
   9  0.999998
  10  0.999998
  11  0.999998
  12  0.999998


  ReaxFF : Energy contributions: 

  E(bond)     =     -78.23660866 eV =    -1804.1674905 kcal
  E(bpen)     =       0.00000000 eV =        0.0000000 kcal
  E(lonepair) =       1.21399347 eV =       27.9951750 kcal
  E(over)     =      12.78993990 eV =      294.9411301 kcal
  E(under)    =       0.00000000 eV =        0.0000000 kcal
  E(val)      =      16.69159999 eV =      384.9149723 kcal
  E(pen)      =       0.00000000 eV =        0.0000000 kcal
  E(coa)      =       0.00000000 eV =        0.0000000 kcal
  E(tors)     =       2.37222583 eV =       54.7044766 kcal
  E(conj)     =       0.00000000 eV =        0.0000000 kcal
  E(hb)       =       0.00000000 eV =        0.0000000 kcal
  E(vdw)      =       6.41369507 eV =      147.9023739 kcal
  E(coulomb)  =      -3.34422152 eV =      -77.1190860 kcal
  E(self)     =      -0.10608718 eV =       -2.4464129 kcal

  Components of energy : 

--------------------------------------------------------------------------------
  Interatomic potentials     =           0.00000000 eV    
  ReaxFF force field         =         -42.20546311 eV    
  Monopole - monopole (real) =           0.00000000 eV    
  Monopole - monopole (recip)=           0.00000000 eV    
  Monopole - monopole (total)=           0.00000000 eV    
--------------------------------------------------------------------------------
  Total lattice energy       =         -42.20546311 eV    
--------------------------------------------------------------------------------
  Total lattice energy       =           -4072.1820 kJ/(mole unit cells)
--------------------------------------------------------------------------------


  Number of variables =       39

  Maximum number of calculations  =         50000
  Maximum Hessian update interval =            10
  Maximum step size               =   1.000000000
  Maximum parameter tolerance     =   0.000010000
  Maximum function  tolerance     =   0.000010000
  Maximum gradient  tolerance     =   0.001000000
  Maximum gradient  component     =   0.010000000

  Symmetry not applied to optimisation

  Cell parameters to be optimised using strains

  Newton-Raphson optimiser to be used

  BFGS hessian update to be used

  Start of bulk optimisation :


  ReaxFF: Delta and Bond Order prime: 

   1  2.764770    2  0.0024    2  0.0024    2  0.0024    2  0.0024    3  0.0024    3  0.0024
    3  0.0024    3  0.0024    4  0.0024    4  0.0024    4  0.0024    4  0.0024
    5  0.2404    6  0.2404    7  0.0108    7  0.8651    8  0.8651    8  0.0108
    9  0.0108    9  0.8651   10  0.8651   10  0.0108   11  0.0108   11  0.8651
   12  0.8651   12  0.0108
   2  2.764770    1  0.0024    1  0.0024    1  0.0024    1  0.0024    3  0.0024    3  0.0024
    3  0.0024    3  0.0024    4  0.0024    4  0.0024    4  0.0024    4  0.0024
    5  0.8651    5  0.0108    6  0.0108    6  0.8651    7  0.2404    8  0.2404
    9  0.0108    9  0.8651   10  0.8651   10  0.0108   11  0.8651   11  0.0108
   12  0.0108   12  0.8651
   3  2.764770    1  0.0024    1  0.0024    1  0.0024    1  0.0024    2  0.0024    2  0.0024
    2  0.0024    2  0.0024    4  0.0024    4  0.0024    4  0.0024    4  0.0024
    5  0.8651    5  0.0108    6  0.0108    6  0.8651    7  0.8651    7  0.0108
    8  0.0108    8  0.8651    9  0.2404   10  0.2404   11  0.0108   11  0.8651
   12  0.8651   12  0.0108
   4  2.764770    1  0.0024    1  0.0024    1  0.0024    1  0.0024    2  0.0024    2  0.0024
    2  0.0024    2  0.0024    3  0.0024    3  0.0024    3  0.0024    3  0.0024
    5  0.8651    5  0.0108    6  0.0108    6  0.8651    7  0.0108    7  0.8651
    8  0.8651    8  0.0108    9  0.8651    9  0.0108   10  0.0108   10  0.8651
   11  0.2404   12  0.2404
   5  2.093572    1  0.2404    2  0.8651    2  0.0108    3  0.8651    3  0.0108    4  0.8651
    4  0.0108    6  0.0873    7  0.0097    7  0.0097    8  0.1800    8  0.1800
    9  0.0097    9  0.0097   10  0.1800   10  0.1800   11  0.0097   11  0.0097
   12  0.1800   12  0.1800
   6  2.093572    1  0.2404    2  0.0108    2  0.8651    3  0.0108    3  0.8651    4  0.0108
    4  0.8651    5  0.0873    7  0.1800    7  0.1800    8  0.0097    8  0.0097
    9  0.1800    9  0.1800   10  0.0097   10  0.0097   11  0.1800   11  0.1800
   12  0.0097   12  0.0097
   7  2.093572    1  0.0108    1  0.8651    2  0.2404    3  0.8651    3  0.0108    4  0.0108
    4  0.8651    5  0.0097    5  0.0097    6  0.1800    6  0.1800    8  0.0873
    9  0.0097    9  0.0097   10  0.1800   10  0.1800   11  0.0097   11  0.0097
   12  0.1800   12  0.1800
   8  2.093572    1  0.8651    1  0.0108    2  0.2404    3  0.0108    3  0.8651    4  0.8651
    4  0.0108    5  0.1800    5  0.1800    6  0.0097    6  0.0097    7  0.0873
    9  0.1800    9  0.1800   10  0.0097   10  0.0097   11  0.1800   11  0.1800
   12  0.0097   12  0.0097
   9  2.093572    1  0.0108    1  0.8651    2  0.0108    2  0.8651    3  0.2404    4  0.8651
    4  0.0108    5  0.0097    5  0.0097    6  0.1800    6  0.1800    7  0.0097
    7  0.0097    8  0.1800    8  0.1800   10  0.0873   11  0.0097   11  0.0097
   12  0.1800   12  0.1800
  10  2.093572    1  0.8651    1  0.0108    2  0.8651    2  0.0108    3  0.2404    4  0.0108
    4  0.8651    5  0.1800    5  0.1800    6  0.0097    6  0.0097    7  0.1800
    7  0.1800    8  0.0097    8  0.0097    9  0.0873   11  0.1800   11  0.1800
   12  0.0097   12  0.0097
  11  2.093572    1  0.0108    1  0.8651    2  0.8651    2  0.0108    3  0.0108    3  0.8651
    4  0.2404    5  0.0097    5  0.0097    6  0.1800    6  0.1800    7  0.0097
    7  0.0097    8  0.1800    8  0.1800    9  0.0097    9  0.0097   10  0.1800
   10  0.1800   12  0.0873
  12  2.093572    1  0.8651    1  0.0108    2  0.0108    2  0.8651    3  0.8651    3  0.0108
    4  0.2404    5  0.1800    5  0.1800    6  0.0097    6  0.0097    7  0.1800
    7  0.1800    8  0.0097    8  0.0097    9  0.1800    9  0.1800   10  0.0097
   10  0.0097   11  0.0873

  ReaxFF: Bond Order sigma prime: 

   1    2  0.0024    2  0.0024    2  0.0024    2  0.0024    3  0.0024    3  0.0024
    3  0.0024    3  0.0024    4  0.0024    4  0.0024    4  0.0024    4  0.0024
    5  0.2404    6  0.2404    7  0.0108    7  0.8651    8  0.8651    8  0.0108
    9  0.0108    9  0.8651   10  0.8651   10  0.0108   11  0.0108   11  0.8651
   12  0.8651   12  0.0108
   2    1  0.0024    1  0.0024    1  0.0024    1  0.0024    3  0.0024    3  0.0024
    3  0.0024    3  0.0024    4  0.0024    4  0.0024    4  0.0024    4  0.0024
    5  0.8651    5  0.0108    6  0.0108    6  0.8651    7  0.2404    8  0.2404
    9  0.0108    9  0.8651   10  0.8651   10  0.0108   11  0.8651   11  0.0108
   12  0.0108   12  0.8651
   3    1  0.0024    1  0.0024    1  0.0024    1  0.0024    2  0.0024    2  0.0024
    2  0.0024    2  0.0024    4  0.0024    4  0.0024    4  0.0024    4  0.0024
    5  0.8651    5  0.0108    6  0.0108    6  0.8651    7  0.8651    7  0.0108
    8  0.0108    8  0.8651    9  0.2404   10  0.2404   11  0.0108   11  0.8651
   12  0.8651   12  0.0108
   4    1  0.0024    1  0.0024    1  0.0024    1  0.0024    2  0.0024    2  0.0024
    2  0.0024    2  0.0024    3  0.0024    3  0.0024    3  0.0024    3  0.0024
    5  0.8651    5  0.0108    6  0.0108    6  0.8651    7  0.0108    7  0.8651
    8  0.8651    8  0.0108    9  0.8651    9  0.0108   10  0.0108   10  0.8651
   11  0.2404   12  0.2404
   5    1  0.2404    2  0.8651    2  0.0108    3  0.8651    3  0.0108    4  0.8651
    4  0.0108    6  0.0873    7  0.0097    7  0.0097    8  0.1800    8  0.1800
    9  0.0097    9  0.0097   10  0.1800   10  0.1800   11  0.0097   11  0.0097
   12  0.1800   12  0.1800
   6    1  0.2404    2  0.0108    2  0.8651    3  0.0108    3  0.8651    4  0.0108
    4  0.8651    5  0.0873    7  0.1800    7  0.1800    8  0.0097    8  0.0097
    9  0.1800    9  0.1800   10  0.0097   10  0.0097   11  0.1800   11  0.1800
   12  0.0097   12  0.0097
   7    1  0.0108    1  0.8651    2  0.2404    3  0.8651    3  0.0108    4  0.0108
    4  0.8651    5  0.0097    5  0.0097    6  0.1800    6  0.1800    8  0.0873
    9  0.0097    9  0.0097   10  0.1800   10  0.1800   11  0.0097   11  0.0097
   12  0.1800   12  0.1800
   8    1  0.8651    1  0.0108    2  0.2404    3  0.0108    3  0.8651    4  0.8651
    4  0.0108    5  0.1800    5  0.1800    6  0.0097    6  0.0097    7  0.0873
    9  0.1800    9  0.1800   10  0.0097   10  0.0097   11  0.1800   11  0.1800
   12  0.0097   12  0.0097
   9    1  0.0108    1  0.8651    2  0.0108    2  0.8651    3  0.2404    4  0.8651
    4  0.0108    5  0.0097    5  0.0097    6  0.1800    6  0.1800    7  0.0097
    7  0.0097    8  0.1800    8  0.1800   10  0.0873   11  0.0097   11  0.0097
   12  0.1800   12  0.1800
  10    1  0.8651    1  0.0108    2  0.8651    2  0.0108    3  0.2404    4  0.0108
    4  0.8651    5  0.1800    5  0.1800    6  0.0097    6  0.0097    7  0.1800
    7  0.1800    8  0.0097    8  0.0097    9  0.0873   11  0.1800   11  0.1800
   12  0.0097   12  0.0097
  11    1  0.0108    1  0.8651    2  0.8651    2  0.0108    3  0.0108    3  0.8651
    4  0.2404    5  0.0097    5  0.0097    6  0.1800    6  0.1800    7  0.0097
    7  0.0097    8  0.1800    8  0.1800    9  0.0097    9  0.0097   10  0.1800
   10  0.1800   12  0.0873
  12    1  0.8651    1  0.0108    2  0.0108    2  0.8651    3  0.8651    3  0.0108
    4  0.2404    5  0.1800    5  0.1800    6  0.0097    6  0.0097    7  0.1800
    7  0.1800    8  0.0097    8  0.0097    9  0.1800    9  0.1800   10  0.0097
   10  0.0097   11  0.0873

  ReaxFF: Bond Order pi prime: 

   1    2  0.0000    2  0.0000    2  0.0000    2  0.0000    3  0.0000    3  0.0000
    3  0.0000    3  0.0000    4  0.0000    4  0.0000    4  0.0000    4  0.0000
    5  0.0000    6  0.0000    7  0.0000    7  0.0000    8  0.0000    8  0.0000
    9  0.0000    9  0.0000   10  0.0000   10  0.0000   11  0.0000   11  0.0000
   12  0.0000   12  0.0000
   2    1  0.0000    1  0.0000    1  0.0000    1  0.0000    3  0.0000    3  0.0000
    3  0.0000    3  0.0000    4  0.0000    4  0.0000    4  0.0000    4  0.0000
    5  0.0000    5  0.0000    6  0.0000    6  0.0000    7  0.0000    8  0.0000
    9  0.0000    9  0.0000   10  0.0000   10  0.0000   11  0.0000   11  0.0000
   12  0.0000   12  0.0000
   3    1  0.0000    1  0.0000    1  0.0000    1  0.0000    2  0.0000    2  0.0000
    2  0.0000    2  0.0000    4  0.0000    4  0.0000    4  0.0000    4  0.0000
    5  0.0000    5  0.0000    6  0.0000    6  0.0000    7  0.0000    7  0.0000
    8  0.0000    8  0.0000    9  0.0000   10  0.0000   11  0.0000   11  0.0000
   12  0.0000   12  0.0000
   4    1  0.0000    1  0.0000    1  0.0000    1  0.0000    2  0.0000    2  0.0000
    2  0.0000    2  0.0000    3  0.0000    3  0.0000    3  0.0000    3  0.0000
    5  0.0000    5  0.0000    6  0.0000    6  0.0000    7  0.0000    7  0.0000
    8  0.0000    8  0.0000    9  0.0000    9  0.0000   10  0.0000   10  0.0000
   11  0.0000   12  0.0000
   5    1  0.0000    2  0.0000    2  0.0000    3  0.0000    3  0.0000    4  0.0000
    4  0.0000    6  0.0000    7  0.0000    7  0.0000    8  0.0000    8  0.0000
    9  0.0000    9  0.0000   10  0.0000   10  0.0000   11  0.0000   11  0.0000
   12  0.0000   12  0.0000
   6    1  0.0000    2  0.0000    2  0.0000    3  0.0000    3  0.0000    4  0.0000
    4  0.0000    5  0.0000    7  0.0000    7  0.0000    8  0.0000    8  0.0000
    9  0.0000    9  0.0000   10  0.0000   10  0.0000   11  0.0000   11  0.0000
   12  0.0000   12  0.0000
   7    1  0.0000    1  0.0000    2  0.0000    3  0.0000    3  0.0000    4  0.0000
    4  0.0000    5  0.0000    5  0.0000    6  0.0000    6  0.0000    8  0.0000
    9  0.0000    9  0.0000   10  0.0000   10  0.0000   11  0.0000   11  0.0000
   12  0.0000   12  0.0000
   8    1  0.0000    1  0.0000    2  0.0000    3  0.0000    3  0.0000    4  0.0000
    4  0.0000    5  0.0000    5  0.0000    6  0.0000    6  0.0000    7  0.0000
    9  0.0000    9  0.0000   10  0.0000   10  0.0000   11  0.0000   11  0.0000
   12  0.0000   12  0.0000
   9    1  0.0000    1  0.0000    2  0.0000    2  0.0000    3  0.0000    4  0.0000
    4  0.0000    5  0.0000    5  0.0000    6  0.0000    6  0.0000    7  0.0000
    7  0.0000    8  0.0000    8  0.0000   10  0.0000   11  0.0000   11  0.0000
   12  0.0000   12  0.0000
  10    1  0.0000    1  0.0000    2  0.0000    2  0.0000    3  0.0000    4  0.0000
    4  0.0000    5  0.0000    5  0.0000    6  0.0000    6  0.0000    7  0.0000
    7  0.0000    8  0.0000    8  0.0000    9  0.0000   11  0.0000   11  0.0000
   12  0.0000   12  0.0000
  11    1  0.0000    1  0.0000    2  0.0000    2  0.0000    3  0.0000    3  0.0000
    4  0.0000    5  0.0000    5  0.0000    6  0.0000    6  0.0000    7  0.0000
    7  0.0000    8  0.0000    8  0.0000    9  0.0000    9  0.0000   10  0.0000
   10  0.0000   12  0.0000
  12    1  0.0000    1  0.0000    2  0.0000    2  0.0000    3  0.0000    3  0.0000
    4  0.0000    5  0.0000    5  0.0000    6  0.0000    6  0.0000    7  0.0000
    7  0.0000    8  0.0000    8  0.0000    9  0.0000    9  0.0000   10  0.0000
   10  0.0000   11  0.0000

  ReaxFF: Bond Order pi-pi prime: 

   1    2  0.0000    2  0.0000    2  0.0000    2  0.0000    3  0.0000    3  0.0000
    3  0.0000    3  0.0000    4  0.0000    4  0.0000    4  0.0000    4  0.0000
    5  0.0000    6  0.0000    7  0.0000    7  0.0000    8  0.0000    8  0.0000
    9  0.0000    9  0.0000   10  0.0000   10  0.0000   11  0.0000   11  0.0000
   12  0.0000   12  0.0000
   2    1  0.0000    1  0.0000    1  0.0000    1  0.0000    3  0.0000    3  0.0000
    3  0.0000    3  0.0000    4  0.0000    4  0.0000    4  0.0000    4  0.0000
    5  0.0000    5  0.0000    6  0.0000    6  0.0000    7  0.0000    8  0.0000
    9  0.0000    9  0.0000   10  0.0000   10  0.0000   11  0.0000   11  0.0000
   12  0.0000   12  0.0000
   3    1  0.0000    1  0.0000    1  0.0000    1  0.0000    2  0.0000    2  0.0000
    2  0.0000    2  0.0000    4  0.0000    4  0.0000    4  0.0000    4  0.0000
    5  0.0000    5  0.0000    6  0.0000    6  0.0000    7  0.0000    7  0.0000
    8  0.0000    8  0.0000    9  0.0000   10  0.0000   11  0.0000   11  0.0000
   12  0.0000   12  0.0000
   4    1  0.0000    1  0.0000    1  0.0000    1  0.0000    2  0.0000    2  0.0000
    2  0.0000    2  0.0000    3  0.0000    3  0.0000    3  0.0000    3  0.0000
    5  0.0000    5  0.0000    6  0.0000    6  0.0000    7  0.0000    7  0.0000
    8  0.0000    8  0.0000    9  0.0000    9  0.0000   10  0.0000   10  0.0000
   11  0.0000   12  0.0000
   5    1  0.0000    2  0.0000    2  0.0000    3  0.0000    3  0.0000    4  0.0000
    4  0.0000    6  0.0000    7  0.0000    7  0.0000    8  0.0000    8  0.0000
    9  0.0000    9  0.0000   10  0.0000   10  0.0000   11  0.0000   11  0.0000
   12  0.0000   12  0.0000
   6    1  0.0000    2  0.0000    2  0.0000    3  0.0000    3  0.0000    4  0.0000
    4  0.0000    5  0.0000    7  0.0000    7  0.0000    8  0.0000    8  0.0000
    9  0.0000    9  0.0000   10  0.0000   10  0.0000   11  0.0000   11  0.0000
   12  0.0000   12  0.0000
   7    1  0.0000    1  0.0000    2  0.0000    3  0.0000    3  0.0000    4  0.0000
    4  0.0000    5  0.0000    5  0.0000    6  0.0000    6  0.0000    8  0.0000
    9  0.0000    9  0.0000   10  0.0000   10  0.0000   11  0.0000   11  0.0000
   12  0.0000   12  0.0000
   8    1  0.0000    1  0.0000    2  0.0000    3  0.0000    3  0.0000    4  0.0000
    4  0.0000    5  0.0000    5  0.0000    6  0.0000    6  0.0000    7  0.0000
    9  0.0000    9  0.0000   10  0.0000   10  0.0000   11  0.0000   11  0.0000
   12  0.0000   12  0.0000
   9    1  0.0000    1  0.0000    2  0.0000    2  0.0000    3  0.0000    4  0.0000
    4  0.0000    5  0.0000    5  0.0000    6  0.0000    6  0.0000    7  0.0000
    7  0.0000    8  0.0000    8  0.0000   10  0.0000   11  0.0000   11  0.0000
   12  0.0000   12  0.0000
  10    1  0.0000    1  0.0000    2  0.0000    2  0.0000    3  0.0000    4  0.0000
    4  0.0000    5  0.0000    5  0.0000    6  0.0000    6  0.0000    7  0.0000
    7  0.0000    8  0.0000    8  0.0000    9  0.0000   11  0.0000   11  0.0000
   12  0.0000   12  0.0000
  11    1  0.0000    1  0.0000    2  0.0000    2  0.0000    3  0.0000    3  0.0000
    4  0.0000    5  0.0000    5  0.0000    6  0.0000    6  0.0000    7  0.0000
    7  0.0000    8  0.0000    8  0.0000    9  0.0000    9  0.0000   10  0.0000
   10  0.0000   12  0.0000
  12    1  0.0000    1  0.0000    2  0.0000    2  0.0000    3  0.0000    3  0.0000
    4  0.0000    5  0.0000    5  0.0000    6  0.0000    6  0.0000    7  0.0000
    7  0.0000    8  0.0000    8  0.0000    9  0.0000    9  0.0000   10  0.0000
   10  0.0000   11  0.0000



  ReaxFF: Delta and Bond Order: 

   1  2.764770    2  0.0024    2  0.0024    2  0.0024    2  0.0024    3  0.0024    3  0.0024
    3  0.0024    3  0.0024    4  0.0024    4  0.0024    4  0.0024    4  0.0024
    5  0.2404    6  0.2404    7  0.0108    7  0.8651    8  0.8651    8  0.0108
    9  0.0108    9  0.8651   10  0.8651   10  0.0108   11  0.0108   11  0.8651
   12  0.8651   12  0.0108
   2  2.764770    1  0.0024    1  0.0024    1  0.0024    1  0.0024    3  0.0024    3  0.0024
    3  0.0024    3  0.0024    4  0.0024    4  0.0024    4  0.0024    4  0.0024
    5  0.8651    5  0.0108    6  0.0108    6  0.8651    7  0.2404    8  0.2404
    9  0.0108    9  0.8651   10  0.8651   10  0.0108   11  0.8651   11  0.0108
   12  0.0108   12  0.8651
   3  2.764770    1  0.0024    1  0.0024    1  0.0024    1  0.0024    2  0.0024    2  0.0024
    2  0.0024    2  0.0024    4  0.0024    4  0.0024    4  0.0024    4  0.0024
    5  0.8651    5  0.0108    6  0.0108    6  0.8651    7  0.8651    7  0.0108
    8  0.0108    8  0.8651    9  0.2404   10  0.2404   11  0.0108   11  0.8651
   12  0.8651   12  0.0108
   4  2.764770    1  0.0024    1  0.0024    1  0.0024    1  0.0024    2  0.0024    2  0.0024
    2  0.0024    2  0.0024    3  0.0024    3  0.0024    3  0.0024    3  0.0024
    5  0.8651    5  0.0108    6  0.0108    6  0.8651    7  0.0108    7  0.8651
    8  0.8651    8  0.0108    9  0.8651    9  0.0108   10  0.0108   10  0.8651
   11  0.2404   12  0.2404
   5  1.466869    1  0.2404    2  0.8651    2  0.0108    3  0.8651    3  0.0108    4  0.8651
    4  0.0108    6  0.0426    7  0.0048    7  0.0048    8  0.0879    8  0.0879
    9  0.0048    9  0.0048   10  0.0879   10  0.0879   11  0.0048   11  0.0048
   12  0.0879   12  0.0879
   6  1.466869    1  0.2404    2  0.0108    2  0.8651    3  0.0108    3  0.8651    4  0.0108
    4  0.8651    5  0.0426    7  0.0879    7  0.0879    8  0.0048    8  0.0048
    9  0.0879    9  0.0879   10  0.0048   10  0.0048   11  0.0879   11  0.0879
   12  0.0048   12  0.0048
   7  1.466869    1  0.0108    1  0.8651    2  0.2404    3  0.8651    3  0.0108    4  0.0108
    4  0.8651    5  0.0048    5  0.0048    6  0.0879    6  0.0879    8  0.0426
    9  0.0048    9  0.0048   10  0.0879   10  0.0879   11  0.0048   11  0.0048
   12  0.0879   12  0.0879
   8  1.466869    1  0.8651    1  0.0108    2  0.2404    3  0.0108    3  0.8651    4  0.8651
    4  0.0108    5  0.0879    5  0.0879    6  0.0048    6  0.0048    7  0.0426
    9  0.0879    9  0.0879   10  0.0048   10  0.0048   11  0.0879   11  0.0879
   12  0.0048   12  0.0048
   9  1.466869    1  0.0108    1  0.8651    2  0.0108    2  0.8651    3  0.2404    4  0.8651
    4  0.0108    5  0.0048    5  0.0048    6  0.0879    6  0.0879    7  0.0048
    7  0.0048    8  0.0879    8  0.0879   10  0.0426   11  0.0048   11  0.0048
   12  0.0879   12  0.0879
  10  1.466869    1  0.8651    1  0.0108    2  0.8651    2  0.0108    3  0.2404    4  0.0108
    4  0.8651    5  0.0879    5  0.0879    6  0.0048    6  0.0048    7  0.0879
    7  0.0879    8  0.0048    8  0.0048    9  0.0426   11  0.0879   11  0.0879
   12  0.0048   12  0.0048
  11  1.466869    1  0.0108    1  0.8651    2  0.8651    2  0.0108    3  0.0108    3  0.8651
    4  0.2404    5  0.0048    5  0.0048    6  0.0879    6  0.0879    7  0.0048
    7  0.0048    8  0.0879    8  0.0879    9  0.0048    9  0.0048   10  0.0879
   10  0.0879   12  0.0426
  12  1.466869    1  0.8651    1  0.0108    2  0.0108    2  0.8651    3  0.8651    3  0.0108
    4  0.2404    5  0.0879    5  0.0879    6  0.0048    6  0.0048    7  0.0879
    7  0.0879    8  0.0048    8  0.0048    9  0.0879    9  0.0879   10  0.0048
   10  0.0048   11  0.0426

  ReaxFF: Delta lone pair: 

   1  1.000000
   2  1.000000
   3  1.000000
   4  1.000000
   5  0.999998
   6  0.999998
   7  0.999998
   8  0.999998
   9  0.999998
  10  0.999998
  11  0.999998
  12  0.999998


  ReaxFF : Energy contributions: 

  E(bond)     =     -78.23660866 eV =    -1804.1674905 kcal
  E(bpen)     =       0.00000000 eV =        0.0000000 kcal
  E(lonepair) =       1.21399347 eV =       27.9951750 kcal
  E(over)     =      12.78993990 eV =      294.9411301 kcal
  E(under)    =       0.00000000 eV =        0.0000000 kcal
  E(val)      =      16.69159999 eV =      384.9149723 kcal
  E(pen)      =       0.00000000 eV =        0.0000000 kcal
  E(coa)      =       0.00000000 eV =        0.0000000 kcal
  E(tors)     =       2.37222583 eV =       54.7044766 kcal
  E(conj)     =       0.00000000 eV =        0.0000000 kcal
  E(hb)       =       0.00000000 eV =        0.0000000 kcal
  E(vdw)      =       6.41369507 eV =      147.9023739 kcal
  E(coulomb)  =      -3.34422152 eV =      -77.1190860 kcal
  E(self)     =      -0.10608718 eV =       -2.4464129 kcal
  Cycle:      0 Energy:       -42.205463  Gnorm:      0.838631  CPU:    0.059
  ** Cosine =   1.000000

  ReaxFF: Delta and Bond Order prime: 

   1  2.704715    2  0.0018    2  0.0018    2  0.0018    2  0.0018    3  0.0018    3  0.0018
    3  0.0018    3  0.0018    4  0.0018    4  0.0018    4  0.0018    4  0.0018
    5  0.2293    6  0.2293    7  0.0094    7  0.8613    8  0.8613    8  0.0094
    9  0.0094    9  0.8613   10  0.8613   10  0.0094   11  0.0094   11  0.8613
   12  0.8613   12  0.0094
   2  2.704715    1  0.0018    1  0.0018    1  0.0018    1  0.0018    3  0.0018    3  0.0018
    3  0.0018    3  0.0018    4  0.0018    4  0.0018    4  0.0018    4  0.0018
    5  0.8613    5  0.0094    6  0.0094    6  0.8613    7  0.2293    8  0.2293
    9  0.0094    9  0.8613   10  0.8613   10  0.0094   11  0.8613   11  0.0094
   12  0.0094   12  0.8613
   3  2.704715    1  0.0018    1  0.0018    1  0.0018    1  0.0018    2  0.0018    2  0.0018
    2  0.0018    2  0.0018    4  0.0018    4  0.0018    4  0.0018    4  0.0018
    5  0.8613    5  0.0094    6  0.0094    6  0.8613    7  0.8613    7  0.0094
    8  0.0094    8  0.8613    9  0.2293   10  0.2293   11  0.0094   11  0.8613
   12  0.8613   12  0.0094
   4  2.704715    1  0.0018    1  0.0018    1  0.0018    1  0.0018    2  0.0018    2  0.0018
    2  0.0018    2  0.0018    3  0.0018    3  0.0018    3  0.0018    3  0.0018
    5  0.8613    5  0.0094    6  0.0094    6  0.8613    7  0.0094    7  0.8613
    8  0.8613    8  0.0094    9  0.8613    9  0.0094   10  0.0094   10  0.8613
   11  0.2293   12  0.2293
   5  1.999208    1  0.2293    2  0.8613    2  0.0094    3  0.8613    3  0.0094    4  0.8613
    4  0.0094    6  0.0823    7  0.0084    7  0.0084    8  0.1708    8  0.1708
    9  0.0084    9  0.0084   10  0.1708   10  0.1708   11  0.0084   11  0.0084
   12  0.1708   12  0.1708
   6  1.999208    1  0.2293    2  0.0094    2  0.8613    3  0.0094    3  0.8613    4  0.0094
    4  0.8613    5  0.0823    7  0.1708    7  0.1708    8  0.0084    8  0.0084
    9  0.1708    9  0.1708   10  0.0084   10  0.0084   11  0.1708   11  0.1708
   12  0.0084   12  0.0084
   7  1.999208    1  0.0094    1  0.8613    2  0.2293    3  0.8613    3  0.0094    4  0.0094
    4  0.8613    5  0.0084    5  0.0084    6  0.1708    6  0.1708    8  0.0823
    9  0.0084    9  0.0084   10  0.1708   10  0.1708   11  0.0084   11  0.0084
   12  0.1708   12  0.1708
   8  1.999208    1  0.8613    1  0.0094    2  0.2293    3  0.0094    3  0.8613    4  0.8613
    4  0.0094    5  0.1708    5  0.1708    6  0.0084    6  0.0084    7  0.0823
    9  0.1708    9  0.1708   10  0.0084   10  0.0084   11  0.1708   11  0.1708
   12  0.0084   12  0.0084
   9  1.999208    1  0.0094    1  0.8613    2  0.0094    2  0.8613    3  0.2293    4  0.8613
    4  0.0094    5  0.0084    5  0.0084    6  0.1708    6  0.1708    7  0.0084
    7  0.0084    8  0.1708    8  0.1708   10  0.0823   11  0.0084   11  0.0084
   12  0.1708   12  0.1708
  10  1.999208    1  0.8613    1  0.0094    2  0.8613    2  0.0094    3  0.2293    4  0.0094
    4  0.8613    5  0.1708    5  0.1708    6  0.0084    6  0.0084    7  0.1708
    7  0.1708    8  0.0084    8  0.0084    9  0.0823   11  0.1708   11  0.1708
   12  0.0084   12  0.0084
  11  1.999208    1  0.0094    1  0.8613    2  0.8613    2  0.0094    3  0.0094    3  0.8613
    4  0.2293    5  0.0084    5  0.0084    6  0.1708    6  0.1708    7  0.0084
    7  0.0084    8  0.1708    8  0.1708    9  0.0084    9  0.0084   10  0.1708
   10  0.1708   12  0.0823
  12  1.999208    1  0.8613    1  0.0094    2  0.0094    2  0.8613    3  0.8613    3  0.0094
    4  0.2293    5  0.1708    5  0.1708    6  0.0084    6  0.0084    7  0.1708
    7  0.1708    8  0.0084    8  0.0084    9  0.1708    9  0.1708   10  0.0084
   10  0.0084   11  0.0823

  ReaxFF: Bond Order sigma prime: 

   1    2  0.0018    2  0.0018    2  0.0018    2  0.0018    3  0.0018    3  0.0018
    3  0.0018    3  0.0018    4  0.0018    4  0.0018    4  0.0018    4  0.0018
    5  0.2293    6  0.2293    7  0.0094    7  0.8613    8  0.8613    8  0.0094
    9  0.0094    9  0.8613   10  0.8613   10  0.0094   11  0.0094   11  0.8613
   12  0.8613   12  0.0094
   2    1  0.0018    1  0.0018    1  0.0018    1  0.0018    3  0.0018    3  0.0018
    3  0.0018    3  0.0018    4  0.0018    4  0.0018    4  0.0018    4  0.0018
    5  0.8613    5  0.0094    6  0.0094    6  0.8613    7  0.2293    8  0.2293
    9  0.0094    9  0.8613   10  0.8613   10  0.0094   11  0.8613   11  0.0094
   12  0.0094   12  0.8613
   3    1  0.0018    1  0.0018    1  0.0018    1  0.0018    2  0.0018    2  0.0018
    2  0.0018    2  0.0018    4  0.0018    4  0.0018    4  0.0018    4  0.0018
    5  0.8613    5  0.0094    6  0.0094    6  0.8613    7  0.8613    7  0.0094
    8  0.0094    8  0.8613    9  0.2293   10  0.2293   11  0.0094   11  0.8613
   12  0.8613   12  0.0094
   4    1  0.0018    1  0.0018    1  0.0018    1  0.0018    2  0.0018    2  0.0018
    2  0.0018    2  0.0018    3  0.0018    3  0.0018    3  0.0018    3  0.0018
    5  0.8613    5  0.0094    6  0.0094    6  0.8613    7  0.0094    7  0.8613
    8  0.8613    8  0.0094    9  0.8613    9  0.0094   10  0.0094   10  0.8613
   11  0.2293   12  0.2293
   5    1  0.2293    2  0.8613    2  0.0094    3  0.8613    3  0.0094    4  0.8613
    4  0.0094    6  0.0823    7  0.0084    7  0.0084    8  0.1708    8  0.1708
    9  0.0084    9  0.0084   10  0.1708   10  0.1708   11  0.0084   11  0.0084
   12  0.1708   12  0.1708
   6    1  0.2293    2  0.0094    2  0.8613    3  0.0094    3  0.8613    4  0.0094
    4  0.8613    5  0.0823    7  0.1708    7  0.1708    8  0.0084    8  0.0084
    9  0.1708    9  0.1708   10  0.0084   10  0.0084   11  0.1708   11  0.1708
   12  0.0084   12  0.0084
   7    1  0.0094    1  0.8613    2  0.2293    3  0.8613    3  0.0094    4  0.0094
    4  0.8613    5  0.0084    5  0.0084    6  0.1708    6  0.1708    8  0.0823
    9  0.0084    9  0.0084   10  0.1708   10  0.1708   11  0.0084   11  0.0084
   12  0.1708   12  0.1708
   8    1  0.8613    1  0.0094    2  0.2293    3  0.0094    3  0.8613    4  0.8613
    4  0.0094    5  0.1708    5  0.1708    6  0.0084    6  0.0084    7  0.0823
    9  0.1708    9  0.1708   10  0.0084   10  0.0084   11  0.1708   11  0.1708
   12  0.0084   12  0.0084
   9    1  0.0094    1  0.8613    2  0.0094    2  0.8613    3  0.2293    4  0.8613
    4  0.0094    5  0.0084    5  0.0084    6  0.1708    6  0.1708    7  0.0084
    7  0.0084    8  0.1708    8  0.1708   10  0.0823   11  0.0084   11  0.0084
   12  0.1708   12  0.1708
  10    1  0.8613    1  0.0094    2  0.8613    2  0.0094    3  0.2293    4  0.0094
    4  0.8613    5  0.1708    5  0.1708    6  0.0084    6  0.0084    7  0.1708
    7  0.1708    8  0.0084    8  0.0084    9  0.0823   11  0.1708   11  0.1708
   12  0.0084   12  0.0084
  11    1  0.0094    1  0.8613    2  0.8613    2  0.0094    3  0.0094    3  0.8613
    4  0.2293    5  0.0084    5  0.0084    6  0.1708    6  0.1708    7  0.0084
    7  0.0084    8  0.1708    8  0.1708    9  0.0084    9  0.0084   10  0.1708
   10  0.1708   12  0.0823
  12    1  0.8613    1  0.0094    2  0.0094    2  0.8613    3  0.8613    3  0.0094
    4  0.2293    5  0.1708    5  0.1708    6  0.0084    6  0.0084    7  0.1708
    7  0.1708    8  0.0084    8  0.0084    9  0.1708    9  0.1708   10  0.0084
   10  0.0084   11  0.0823

  ReaxFF: Bond Order pi prime: 

   1    2  0.0000    2  0.0000    2  0.0000    2  0.0000    3  0.0000    3  0.0000
    3  0.0000    3  0.0000    4  0.0000    4  0.0000    4  0.0000    4  0.0000
    5  0.0000    6  0.0000    7  0.0000    7  0.0000    8  0.0000    8  0.0000
    9  0.0000    9  0.0000   10  0.0000   10  0.0000   11  0.0000   11  0.0000
   12  0.0000   12  0.0000
   2    1  0.0000    1  0.0000    1  0.0000    1  0.0000    3  0.0000    3  0.0000
    3  0.0000    3  0.0000    4  0.0000    4  0.0000    4  0.0000    4  0.0000
    5  0.0000    5  0.0000    6  0.0000    6  0.0000    7  0.0000    8  0.0000
    9  0.0000    9  0.0000   10  0.0000   10  0.0000   11  0.0000   11  0.0000
   12  0.0000   12  0.0000
   3    1  0.0000    1  0.0000    1  0.0000    1  0.0000    2  0.0000    2  0.0000
    2  0.0000    2  0.0000    4  0.0000    4  0.0000    4  0.0000    4  0.0000
    5  0.0000    5  0.0000    6  0.0000    6  0.0000    7  0.0000    7  0.0000
    8  0.0000    8  0.0000    9  0.0000   10  0.0000   11  0.0000   11  0.0000
   12  0.0000   12  0.0000
   4    1  0.0000    1  0.0000    1  0.0000    1  0.0000    2  0.0000    2  0.0000
    2  0.0000    2  0.0000    3  0.0000    3  0.0000    3  0.0000    3  0.0000
    5  0.0000    5  0.0000    6  0.0000    6  0.0000    7  0.0000    7  0.0000
    8  0.0000    8  0.0000    9  0.0000    9  0.0000   10  0.0000   10  0.0000
   11  0.0000   12  0.0000
   5    1  0.0000    2  0.0000    2  0.0000    3  0.0000    3  0.0000    4  0.0000
    4  0.0000    6  0.0000    7  0.0000    7  0.0000    8  0.0000    8  0.0000
    9  0.0000    9  0.0000   10  0.0000   10  0.0000   11  0.0000   11  0.0000
   12  0.0000   12  0.0000
   6    1  0.0000    2  0.0000    2  0.0000    3  0.0000    3  0.0000    4  0.0000
    4  0.0000    5  0.0000    7  0.0000    7  0.0000    8  0.0000    8  0.0000
    9  0.0000    9  0.0000   10  0.0000   10  0.0000   11  0.0000   11  0.0000
   12  0.0000   12  0.0000
   7    1  0.0000    1  0.0000    2  0.0000    3  0.0000    3  0.0000    4  0.0000
    4  0.0000    5  0.0000    5  0.0000    6  0.0000    6  0.0000    8  0.0000
    9  0.0000    9  0.0000   10  0.0000   10  0.0000   11  0.0000   11  0.0000
   12  0.0000   12  0.0000
   8    1  0.0000    1  0.0000    2  0.0000    3  0.0000    3  0.0000    4  0.0000
    4  0.0000    5  0.0000    5  0.0000    6  0.0000    6  0.0000    7  0.0000
    9  0.0000    9  0.0000   10  0.0000   10  0.0000   11  0.0000   11  0.0000
   12  0.0000   12  0.0000
   9    1  0.0000    1  0.0000    2  0.0000    2  0.0000    3  0.0000    4  0.0000
    4  0.0000    5  0.0000    5  0.0000    6  0.0000    6  0.0000    7  0.0000
    7  0.0000    8  0.0000    8  0.0000   10  0.0000   11  0.0000   11  0.0000
   12  0.0000   12  0.0000
  10    1  0.0000    1  0.0000    2  0.0000    2  0.0000    3  0.0000    4  0.0000
    4  0.0000    5  0.0000    5  0.0000    6  0.0000    6  0.0000    7  0.0000
    7  0.0000    8  0.0000    8  0.0000    9  0.0000   11  0.0000   11  0.0000
   12  0.0000   12  0.0000
  11    1  0.0000    1  0.0000    2  0.0000    2  0.0000    3  0.0000    3  0.0000
    4  0.0000    5  0.0000    5  0.0000    6  0.0000    6  0.0000    7  0.0000
    7  0.0000    8  0.0000    8  0.0000    9  0.0000    9  0.0000   10  0.0000
   10  0.0000   12  0.0000
  12    1  0.0000    1  0.0000    2  0.0000    2  0.0000    3  0.0000    3  0.0000
    4  0.0000    5  0.0000    5  0.0000    6  0.0000    6  0.0000    7  0.0000
    7  0.0000    8  0.0000    8  0.0000    9  0.0000    9  0.0000   10  0.0000
   10  0.0000   11  0.0000

  ReaxFF: Bond Order pi-pi prime: 

   1    2  0.0000    2  0.0000    2  0.0000    2  0.0000    3  0.0000    3  0.0000
    3  0.0000    3  0.0000    4  0.0000    4  0.0000    4  0.0000    4  0.0000
    5  0.0000    6  0.0000    7  0.0000    7  0.0000    8  0.0000    8  0.0000
    9  0.0000    9  0.0000   10  0.0000   10  0.0000   11  0.0000   11  0.0000
   12  0.0000   12  0.0000
   2    1  0.0000    1  0.0000    1  0.0000    1  0.0000    3  0.0000    3  0.0000
    3  0.0000    3  0.0000    4  0.0000    4  0.0000    4  0.0000    4  0.0000
    5  0.0000    5  0.0000    6  0.0000    6  0.0000    7  0.0000    8  0.0000
    9  0.0000    9  0.0000   10  0.0000   10  0.0000   11  0.0000   11  0.0000
   12  0.0000   12  0.0000
   3    1  0.0000    1  0.0000    1  0.0000    1  0.0000    2  0.0000    2  0.0000
    2  0.0000    2  0.0000    4  0.0000    4  0.0000    4  0.0000    4  0.0000
    5  0.0000    5  0.0000    6  0.0000    6  0.0000    7  0.0000    7  0.0000
    8  0.0000    8  0.0000    9  0.0000   10  0.0000   11  0.0000   11  0.0000
   12  0.0000   12  0.0000
   4    1  0.0000    1  0.0000    1  0.0000    1  0.0000    2  0.0000    2  0.0000
    2  0.0000    2  0.0000    3  0.0000    3  0.0000    3  0.0000    3  0.0000
    5  0.0000    5  0.0000    6  0.0000    6  0.0000    7  0.0000    7  0.0000
    8  0.0000    8  0.0000    9  0.0000    9  0.0000   10  0.0000   10  0.0000
   11  0.0000   12  0.0000
   5    1  0.0000    2  0.0000    2  0.0000    3  0.0000    3  0.0000    4  0.0000
    4  0.0000    6  0.0000    7  0.0000    7  0.0000    8  0.0000    8  0.0000
    9  0.0000    9  0.0000   10  0.0000   10  0.0000   11  0.0000   11  0.0000
   12  0.0000   12  0.0000
   6    1  0.0000    2  0.0000    2  0.0000    3  0.0000    3  0.0000    4  0.0000
    4  0.0000    5  0.0000    7  0.0000    7  0.0000    8  0.0000    8  0.0000
    9  0.0000    9  0.0000   10  0.0000   10  0.0000   11  0.0000   11  0.0000
   12  0.0000   12  0.0000
   7    1  0.0000    1  0.0000    2  0.0000    3  0.0000    3  0.0000    4  0.0000
    4  0.0000    5  0.0000    5  0.0000    6  0.0000    6  0.0000    8  0.0000
    9  0.0000    9  0.0000   10  0.0000   10  0.0000   11  0.0000   11  0.0000
   12  0.0000   12  0.0000
   8    1  0.0000    1  0.0000    2  0.0000    3  0.0000    3  0.0000    4  0.0000
    4  0.0000    5  0.0000    5  0.0000    6  0.0000    6  0.0000    7  0.0000
    9  0.0000    9  0.0000   10  0.0000   10  0.0000   11  0.0000   11  0.0000
   12  0.0000   12  0.0000
   9    1  0.0000    1  0.0000    2  0.0000    2  0.0000    3  0.0000    4  0.0000
    4  0.0000    5  0.0000    5  0.0000    6  0.0000    6  0.0000    7  0.0000
    7  0.0000    8  0.0000    8  0.0000   10  0.0000   11  0.0000   11  0.0000
   12  0.0000   12  0.0000
  10    1  0.0000    1  0.0000    2  0.0000    2  0.0000    3  0.0000    4  0.0000
    4  0.0000    5  0.0000    5  0.0000    6  0.0000    6  0.0000    7  0.0000
    7  0.0000    8  0.0000    8  0.0000    9  0.0000   11  0.0000   11  0.0000
   12  0.0000   12  0.0000
  11    1  0.0000    1  0.0000    2  0.0000    2  0.0000    3  0.0000    3  0.0000
    4  0.0000    5  0.0000    5  0.0000    6  0.0000    6  0.0000    7  0.0000
    7  0.0000    8  0.0000    8  0.0000    9  0.0000    9  0.0000   10  0.0000
   10  0.0000   12  0.0000
  12    1  0.0000    1  0.0000    2  0.0000    2  0.0000    3  0.0000    3  0.0000
    4  0.0000    5  0.0000    5  0.0000    6  0.0000    6  0.0000    7  0.0000
    7  0.0000    8  0.0000    8  0.0000    9  0.0000    9  0.0000   10  0.0000
   10  0.0000   11  0.0000



  ReaxFF: Delta and Bond Order: 

   1  2.704715    2  0.0018    2  0.0018    2  0.0018    2  0.0018    3  0.0018    3  0.0018
    3  0.0018    3  0.0018    4  0.0018    4  0.0018    4  0.0018    4  0.0018
    5  0.2293    6  0.2293    7  0.0094    7  0.8613    8  0.8613    8  0.0094
    9  0.0094    9  0.8613   10  0.8613   10  0.0094   11  0.0094   11  0.8613
   12  0.8613   12  0.0094
   2  2.704715    1  0.0018    1  0.0018    1  0.0018    1  0.0018    3  0.0018    3  0.0018
    3  0.0018    3  0.0018    4  0.0018    4  0.0018    4  0.0018    4  0.0018
    5  0.8613    5  0.0094    6  0.0094    6  0.8613    7  0.2293    8  0.2293
    9  0.0094    9  0.8613   10  0.8613   10  0.0094   11  0.8613   11  0.0094
   12  0.0094   12  0.8613
   3  2.704715    1  0.0018    1  0.0018    1  0.0018    1  0.0018    2  0.0018    2  0.0018
    2  0.0018    2  0.0018    4  0.0018    4  0.0018    4  0.0018    4  0.0018
    5  0.8613    5  0.0094    6  0.0094    6  0.8613    7  0.8613    7  0.0094
    8  0.0094    8  0.8613    9  0.2293   10  0.2293   11  0.0094   11  0.8613
   12  0.8613   12  0.0094
   4  2.704715    1  0.0018    1  0.0018    1  0.0018    1  0.0018    2  0.0018    2  0.0018
    2  0.0018    2  0.0018    3  0.0018    3  0.0018    3  0.0018    3  0.0018
    5  0.8613    5  0.0094    6  0.0094    6  0.8613    7  0.0094    7  0.8613
    8  0.8613    8  0.0094    9  0.8613    9  0.0094   10  0.0094   10  0.8613
   11  0.2293   12  0.2293
   5  1.420497    1  0.2293    2  0.8613    2  0.0094    3  0.8613    3  0.0094    4  0.8613
    4  0.0094    6  0.0412    7  0.0042    7  0.0042    8  0.0854    8  0.0854
    9  0.0042    9  0.0042   10  0.0854   10  0.0854   11  0.0042   11  0.0042
   12  0.0854   12  0.0854
   6  1.420497    1  0.2293    2  0.0094    2  0.8613    3  0.0094    3  0.8613    4  0.0094
    4  0.8613    5  0.0412    7  0.0854    7  0.0854    8  0.0042    8  0.0042
    9  0.0854    9  0.0854   10  0.0042   10  0.0042   11  0.0854   11  0.0854
   12  0.0042   12  0.0042
   7  1.420497    1  0.0094    1  0.8613    2  0.2293    3  0.8613    3  0.0094    4  0.0094
    4  0.8613    5  0.0042    5  0.0042    6  0.0854    6  0.0854    8  0.0412
    9  0.0042    9  0.0042   10  0.0854   10  0.0854   11  0.0042   11  0.0042
   12  0.0854   12  0.0854
   8  1.420497    1  0.8613    1  0.0094    2  0.2293    3  0.0094    3  0.8613    4  0.8613
    4  0.0094    5  0.0854    5  0.0854    6  0.0042    6  0.0042    7  0.0412
    9  0.0854    9  0.0854   10  0.0042   10  0.0042   11  0.0854   11  0.0854
   12  0.0042   12  0.0042
   9  1.420497    1  0.0094    1  0.8613    2  0.0094    2  0.8613    3  0.2293    4  0.8613
    4  0.0094    5  0.0042    5  0.0042    6  0.0854    6  0.0854    7  0.0042
    7  0.0042    8  0.0854    8  0.0854   10  0.0412   11  0.0042   11  0.0042
   12  0.0854   12  0.0854
  10  1.420497    1  0.8613    1  0.0094    2  0.8613    2  0.0094    3  0.2293    4  0.0094
    4  0.8613    5  0.0854    5  0.0854    6  0.0042    6  0.0042    7  0.0854
    7  0.0854    8  0.0042    8  0.0042    9  0.0412   11  0.0854   11  0.0854
   12  0.0042   12  0.0042
  11  1.420497    1  0.0094    1  0.8613    2  0.8613    2  0.0094    3  0.0094    3  0.8613
    4  0.2293    5  0.0042    5  0.0042    6  0.0854    6  0.0854    7  0.0042
    7  0.0042    8  0.0854    8  0.0854    9  0.0042    9  0.0042   10  0.0854
   10  0.0854   12  0.0412
  12  1.420497    1  0.8613    1  0.0094    2  0.0094    2  0.8613    3  0.8613    3  0.0094
    4  0.2293    5  0.0854    5  0.0854    6  0.0042    6  0.0042    7  0.0854
    7  0.0854    8  0.0042    8  0.0042    9  0.0854    9  0.0854   10  0.0042
   10  0.0042   11  0.0412

  ReaxFF: Delta lone pair: 

   1  1.000000
   2  1.000000
   3  1.000000
   4  1.000000
   5  0.999995
   6  0.999995
   7  0.999995
   8  0.999995
   9  0.999995
  10  0.999995
  11  0.999995
  12  0.999995


  ReaxFF : Energy contributions: 

  E(bond)     =     -77.32958973 eV =    -1783.2512711 kcal
  E(bpen)     =       0.00000000 eV =        0.0000000 kcal
  E(lonepair) =       1.21399035 eV =       27.9951030 kcal
  E(over)     =      12.45806235 eV =      287.2879009 kcal
  E(under)    =       0.00000000 eV =        0.0000000 kcal
  E(val)      =      16.36991897 eV =      377.4968794 kcal
  E(pen)      =       0.00000000 eV =        0.0000000 kcal
  E(coa)      =       0.00000000 eV =        0.0000000 kcal
  E(tors)     =       2.17511203 eV =       50.1589534 kcal
  E(conj)     =       0.00000000 eV =        0.0000000 kcal
  E(hb)       =       0.00000000 eV =        0.0000000 kcal
  E(vdw)      =       6.09101392 eV =      140.4612175 kcal
  E(coulomb)  =      -3.32408695 eV =      -76.6547746 kcal
  E(self)     =      -0.11936064 eV =       -2.7525040 kcal

  ReaxFF: Delta and Bond Order prime: 

   1  2.646449    2  0.0013    2  0.0013    2  0.0013    2  0.0013    3  0.0013    3  0.0013
    3  0.0013    3  0.0013    4  0.0013    4  0.0013    4  0.0013    4  0.0013
    5  0.2185    6  0.2185    7  0.0082    7  0.8575    8  0.8575    8  0.0082
    9  0.0082    9  0.8575   10  0.8575   10  0.0082   11  0.0082   11  0.8575
   12  0.8575   12  0.0082
   2  2.646449    1  0.0013    1  0.0013    1  0.0013    1  0.0013    3  0.0013    3  0.0013
    3  0.0013    3  0.0013    4  0.0013    4  0.0013    4  0.0013    4  0.0013
    5  0.8575    5  0.0082    6  0.0082    6  0.8575    7  0.2185    8  0.2185
    9  0.0082    9  0.8575   10  0.8575   10  0.0082   11  0.8575   11  0.0082
   12  0.0082   12  0.8575
   3  2.646449    1  0.0013    1  0.0013    1  0.0013    1  0.0013    2  0.0013    2  0.0013
    2  0.0013    2  0.0013    4  0.0013    4  0.0013    4  0.0013    4  0.0013
    5  0.8575    5  0.0082    6  0.0082    6  0.8575    7  0.8575    7  0.0082
    8  0.0082    8  0.8575    9  0.2185   10  0.2185   11  0.0082   11  0.8575
   12  0.8575   12  0.0082
   4  2.646449    1  0.0013    1  0.0013    1  0.0013    1  0.0013    2  0.0013    2  0.0013
    2  0.0013    2  0.0013    3  0.0013    3  0.0013    3  0.0013    3  0.0013
    5  0.8575    5  0.0082    6  0.0082    6  0.8575    7  0.0082    7  0.8575
    8  0.8575    8  0.0082    9  0.8575    9  0.0082   10  0.0082   10  0.8575
   11  0.2185   12  0.2185
   5  1.907707    1  0.2185    2  0.8575    2  0.0082    3  0.8575    3  0.0082    4  0.8575
    4  0.0082    6  0.0776    7  0.0073    7  0.0073    8  0.1619    8  0.1619
    9  0.0073    9  0.0073   10  0.1619   10  0.1619   11  0.0073   11  0.0073
   12  0.1619   12  0.1619
   6  1.907707    1  0.2185    2  0.0082    2  0.8575    3  0.0082    3  0.8575    4  0.0082
    4  0.8575    5  0.0776    7  0.1619    7  0.1619    8  0.0073    8  0.0073
    9  0.1619    9  0.1619   10  0.0073   10  0.0073   11  0.1619   11  0.1619
   12  0.0073   12  0.0073
   7  1.907707    1  0.0082    1  0.8575    2  0.2185    3  0.8575    3  0.0082    4  0.0082
    4  0.8575    5  0.0073    5  0.0073    6  0.1619    6  0.1619    8  0.0776
    9  0.0073    9  0.0073   10  0.1619   10  0.1619   11  0.0073   11  0.0073
   12  0.1619   12  0.1619
   8  1.907707    1  0.8575    1  0.0082    2  0.2185    3  0.0082    3  0.8575    4  0.8575
    4  0.0082    5  0.1619    5  0.1619    6  0.0073    6  0.0073    7  0.0776
    9  0.1619    9  0.1619   10  0.0073   10  0.0073   11  0.1619   11  0.1619
   12  0.0073   12  0.0073
   9  1.907707    1  0.0082    1  0.8575    2  0.0082    2  0.8575    3  0.2185    4  0.8575
    4  0.0082    5  0.0073    5  0.0073    6  0.1619    6  0.1619    7  0.0073
    7  0.0073    8  0.1619    8  0.1619   10  0.0776   11  0.0073   11  0.0073
   12  0.1619   12  0.1619
  10  1.907707    1  0.8575    1  0.0082    2  0.8575    2  0.0082    3  0.2185    4  0.0082
    4  0.8575    5  0.1619    5  0.1619    6  0.0073    6  0.0073    7  0.1619
    7  0.1619    8  0.0073    8  0.0073    9  0.0776   11  0.1619   11  0.1619
   12  0.0073   12  0.0073
  11  1.907707    1  0.0082    1  0.8575    2  0.8575    2  0.0082    3  0.0082    3  0.8575
    4  0.2185    5  0.0073    5  0.0073    6  0.1619    6  0.1619    7  0.0073
    7  0.0073    8  0.1619    8  0.1619    9  0.0073    9  0.0073   10  0.1619
   10  0.1619   12  0.0776
  12  1.907707    1  0.8575    1  0.0082    2  0.0082    2  0.8575    3  0.8575    3  0.0082
    4  0.2185    5  0.1619    5  0.1619    6  0.0073    6  0.0073    7  0.1619
    7  0.1619    8  0.0073    8  0.0073    9  0.1619    9  0.1619   10  0.0073
   10  0.0073   11  0.0776

  ReaxFF: Bond Order sigma prime: 

   1    2  0.0013    2  0.0013    2  0.0013    2  0.0013    3  0.0013    3  0.0013
    3  0.0013    3  0.0013    4  0.0013    4  0.0013    4  0.0013    4  0.0013
    5  0.2185    6  0.2185    7  0.0082    7  0.8575    8  0.8575    8  0.0082
    9  0.0082    9  0.8575   10  0.8575   10  0.0082   11  0.0082   11  0.8575
   12  0.8575   12  0.0082
   2    1  0.0013    1  0.0013    1  0.0013    1  0.0013    3  0.0013    3  0.0013
    3  0.0013    3  0.0013    4  0.0013    4  0.0013    4  0.0013    4  0.0013
    5  0.8575    5  0.0082    6  0.0082    6  0.8575    7  0.2185    8  0.2185
    9  0.0082    9  0.8575   10  0.8575   10  0.0082   11  0.8575   11  0.0082
   12  0.0082   12  0.8575
   3    1  0.0013    1  0.0013    1  0.0013    1  0.0013    2  0.0013    2  0.0013
    2  0.0013    2  0.0013    4  0.0013    4  0.0013    4  0.0013    4  0.0013
    5  0.8575    5  0.0082    6  0.0082    6  0.8575    7  0.8575    7  0.0082
    8  0.0082    8  0.8575    9  0.2185   10  0.2185   11  0.0082   11  0.8575
   12  0.8575   12  0.0082
   4    1  0.0013    1  0.0013    1  0.0013    1  0.0013    2  0.0013    2  0.0013
    2  0.0013    2  0.0013    3  0.0013    3  0.0013    3  0.0013    3  0.0013
    5  0.8575    5  0.0082    6  0.0082    6  0.8575    7  0.0082    7  0.8575
    8  0.8575    8  0.0082    9  0.8575    9  0.0082   10  0.0082   10  0.8575
   11  0.2185   12  0.2185
   5    1  0.2185    2  0.8575    2  0.0082    3  0.8575    3  0.0082    4  0.8575
    4  0.0082    6  0.0776    7  0.0073    7  0.0073    8  0.1619    8  0.1619
    9  0.0073    9  0.0073   10  0.1619   10  0.1619   11  0.0073   11  0.0073
   12  0.1619   12  0.1619
   6    1  0.2185    2  0.0082    2  0.8575    3  0.0082    3  0.8575    4  0.0082
    4  0.8575    5  0.0776    7  0.1619    7  0.1619    8  0.0073    8  0.0073
    9  0.1619    9  0.1619   10  0.0073   10  0.0073   11  0.1619   11  0.1619
   12  0.0073   12  0.0073
   7    1  0.0082    1  0.8575    2  0.2185    3  0.8575    3  0.0082    4  0.0082
    4  0.8575    5  0.0073    5  0.0073    6  0.1619    6  0.1619    8  0.0776
    9  0.0073    9  0.0073   10  0.1619   10  0.1619   11  0.0073   11  0.0073
   12  0.1619   12  0.1619
   8    1  0.8575    1  0.0082    2  0.2185    3  0.0082    3  0.8575    4  0.8575
    4  0.0082    5  0.1619    5  0.1619    6  0.0073    6  0.0073    7  0.0776
    9  0.1619    9  0.1619   10  0.0073   10  0.0073   11  0.1619   11  0.1619
   12  0.0073   12  0.0073
   9    1  0.0082    1  0.8575    2  0.0082    2  0.8575    3  0.2185    4  0.8575
    4  0.0082    5  0.0073    5  0.0073    6  0.1619    6  0.1619    7  0.0073
    7  0.0073    8  0.1619    8  0.1619   10  0.0776   11  0.0073   11  0.0073
   12  0.1619   12  0.1619
  10    1  0.8575    1  0.0082    2  0.8575    2  0.0082    3  0.2185    4  0.0082
    4  0.8575    5  0.1619    5  0.1619    6  0.0073    6  0.0073    7  0.1619
    7  0.1619    8  0.0073    8  0.0073    9  0.0776   11  0.1619   11  0.1619
   12  0.0073   12  0.0073
  11    1  0.0082    1  0.8575    2  0.8575    2  0.0082    3  0.0082    3  0.8575
    4  0.2185    5  0.0073    5  0.0073    6  0.1619    6  0.1619    7  0.0073
    7  0.0073    8  0.1619    8  0.1619    9  0.0073    9  0.0073   10  0.1619
   10  0.1619   12  0.0776
  12    1  0.8575    1  0.0082    2  0.0082    2  0.8575    3  0.8575    3  0.0082
    4  0.2185    5  0.1619    5  0.1619    6  0.0073    6  0.0073    7  0.1619
    7  0.1619    8  0.0073    8  0.0073    9  0.1619    9  0.1619   10  0.0073
   10  0.0073   11  0.0776

  ReaxFF: Bond Order pi prime: 

   1    2  0.0000    2  0.0000    2  0.0000    2  0.0000    3  0.0000    3  0.0000
    3  0.0000    3  0.0000    4  0.0000    4  0.0000    4  0.0000    4  0.0000
    5  0.0000    6  0.0000    7  0.0000    7  0.0000    8  0.0000    8  0.0000
    9  0.0000    9  0.0000   10  0.0000   10  0.0000   11  0.0000   11  0.0000
   12  0.0000   12  0.0000
   2    1  0.0000    1  0.0000    1  0.0000    1  0.0000    3  0.0000    3  0.0000
    3  0.0000    3  0.0000    4  0.0000    4  0.0000    4  0.0000    4  0.0000
    5  0.0000    5  0.0000    6  0.0000    6  0.0000    7  0.0000    8  0.0000
    9  0.0000    9  0.0000   10  0.0000   10  0.0000   11  0.0000   11  0.0000
   12  0.0000   12  0.0000
   3    1  0.0000    1  0.0000    1  0.0000    1  0.0000    2  0.0000    2  0.0000
    2  0.0000    2  0.0000    4  0.0000    4  0.0000    4  0.0000    4  0.0000
    5  0.0000    5  0.0000    6  0.0000    6  0.0000    7  0.0000    7  0.0000
    8  0.0000    8  0.0000    9  0.0000   10  0.0000   11  0.0000   11  0.0000
   12  0.0000   12  0.0000
   4    1  0.0000    1  0.0000    1  0.0000    1  0.0000    2  0.0000    2  0.0000
    2  0.0000    2  0.0000    3  0.0000    3  0.0000    3  0.0000    3  0.0000
    5  0.0000    5  0.0000    6  0.0000    6  0.0000    7  0.0000    7  0.0000
    8  0.0000    8  0.0000    9  0.0000    9  0.0000   10  0.0000   10  0.0000
   11  0.0000   12  0.0000
   5    1  0.0000    2  0.0000    2  0.0000    3  0.0000    3  0.0000    4  0.0000
    4  0.0000    6  0.0000    7  0.0000    7  0.0000    8  0.0000    8  0.0000
    9  0.0000    9  0.0000   10  0.0000   10  0.0000   11  0.0000   11  0.0000
   12  0.0000   12  0.0000
   6    1  0.0000    2  0.0000    2  0.0000    3  0.0000    3  0.0000    4  0.0000
    4  0.0000    5  0.0000    7  0.0000    7  0.0000    8  0.0000    8  0.0000
    9  0.0000    9  0.0000   10  0.0000   10  0.0000   11  0.0000   11  0.0000
   12  0.0000   12  0.0000
   7    1  0.0000    1  0.0000    2  0.0000    3  0.0000    3  0.0000    4  0.0000
    4  0.0000    5  0.0000    5  0.0000    6  0.0000    6  0.0000    8  0.0000
    9  0.0000    9  0.0000   10  0.0000   10  0.0000   11  0.0000   11  0.0000
   12  0.0000   12  0.0000
   8    1  0.0000    1  0.0000    2  0.0000    3  0.0000    3  0.0000    4  0.0000
    4  0.0000    5  0.0000    5  0.0000    6  0.0000    6  0.0000    7  0.0000
    9  0.0000    9  0.0000   10  0.0000   10  0.0000   11  0.0000   11  0.0000
   12  0.0000   12  0.0000
   9    1  0.0000    1  0.0000    2  0.0000    2  0.0000    3  0.0000    4  0.0000
    4  0.0000    5  0.0000    5  0.0000    6  0.0000    6  0.0000    7  0.0000
    7  0.0000    8  0.0000    8  0.0000   10  0.0000   11  0.0000   11  0.0000
   12  0.0000   12  0.0000
  10    1  0.0000    1  0.0000    2  0.0000    2  0.0000    3  0.0000    4  0.0000
    4  0.0000    5  0.0000    5  0.0000    6  0.0000    6  0.0000    7  0.0000
    7  0.0000    8  0.0000    8  0.0000    9  0.0000   11  0.0000   11  0.0000
   12  0.0000   12  0.0000
  11    1  0.0000    1  0.0000    2  0.0000    2  0.0000    3  0.0000    3  0.0000
    4  0.0000    5  0.0000    5  0.0000    6  0.0000    6  0.0000    7  0.0000
    7  0.0000    8  0.0000    8  0.0000    9  0.0000    9  0.0000   10  0.0000
   10  0.0000   12  0.0000
  12    1  0.0000    1  0.0000    2  0.0000    2  0.0000    3  0.0000    3  0.0000
    4  0.0000    5  0.0000    5  0.0000    6  0.0000    6  0.0000    7  0.0000
    7  0.0000    8  0.0000    8  0.0000    9  0.0000    9  0.0000   10  0.0000
   10  0.0000   11  0.0000

  ReaxFF: Bond Order pi-pi prime: 

   1    2  0.0000    2  0.0000    2  0.0000    2  0.0000    3  0.0000    3  0.0000
    3  0.0000    3  0.0000    4  0.0000    4  0.0000    4  0.0000    4  0.0000
    5  0.0000    6  0.0000    7  0.0000    7  0.0000    8  0.0000    8  0.0000
    9  0.0000    9  0.0000   10  0.0000   10  0.0000   11  0.0000   11  0.0000
   12  0.0000   12  0.0000
   2    1  0.0000    1  0.0000    1  0.0000    1  0.0000    3  0.0000    3  0.0000
    3  0.0000    3  0.0000    4  0.0000    4  0.0000    4  0.0000    4  0.0000
    5  0.0000    5  0.0000    6  0.0000    6  0.0000    7  0.0000    8  0.0000
    9  0.0000    9  0.0000   10  0.0000   10  0.0000   11  0.0000   11  0.0000
   12  0.0000   12  0.0000
   3    1  0.0000    1  0.0000    1  0.0000    1  0.0000    2  0.0000    2  0.0000
    2  0.0000    2  0.0000    4  0.0000    4  0.0000    4  0.0000    4  0.0000
    5  0.0000    5  0.0000    6  0.0000    6  0.0000    7  0.0000    7  0.0000
    8  0.0000    8  0.0000    9  0.0000   10  0.0000   11  0.0000   11  0.0000
   12  0.0000   12  0.0000
   4    1  0.0000    1  0.0000    1  0.0000    1  0.0000    2  0.0000    2  0.0000
    2  0.0000    2  0.0000    3  0.0000    3  0.0000    3  0.0000    3  0.0000
    5  0.0000    5  0.0000    6  0.0000    6  0.0000    7  0.0000    7  0.0000
    8  0.0000    8  0.0000    9  0.0000    9  0.0000   10  0.0000   10  0.0000
   11  0.0000   12  0.0000
   5    1  0.0000    2  0.0000    2  0.0000    3  0.0000    3  0.0000    4  0.0000
    4  0.0000    6  0.0000    7  0.0000    7  0.0000    8  0.0000    8  0.0000
    9  0.0000    9  0.0000   10  0.0000   10  0.0000   11  0.0000   11  0.0000
   12  0.0000   12  0.0000
   6    1  0.0000    2  0.0000    2  0.0000    3  0.0000    3  0.0000    4  0.0000
    4  0.0000    5  0.0000    7  0.0000    7  0.0000    8  0.0000    8  0.0000
    9  0.0000    9  0.0000   10  0.0000   10  0.0000   11  0.0000   11  0.0000
   12  0.0000   12  0.0000
   7    1  0.0000    1  0.0000    2  0.0000    3  0.0000    3  0.0000    4  0.0000
    4  0.0000    5  0.0000    5  0.0000    6  0.0000    6  0.0000    8  0.0000
    9  0.0000    9  0.0000   10  0.0000   10  0.0000   11  0.0000   11  0.0000
   12  0.0000   12  0.0000
   8    1  0.0000    1  0.0000    2  0.0000    3  0.0000    3  0.0000    4  0.0000
    4  0.0000    5  0.0000    5  0.0000    6  0.0000    6  0.0000    7  0.0000
    9  0.0000    9  0.0000   10  0.0000   10  0.0000   11  0.0000   11  0.0000
   12  0.0000   12  0.0000
   9    1  0.0000    1  0.0000    2  0.0000    2  0.0000    3  0.0000    4  0.0000
    4  0.0000    5  0.0000    5  0.0000    6  0.0000    6  0.0000    7  0.0000
    7  0.0000    8  0.0000    8  0.0000   10  0.0000   11  0.0000   11  0.0000
   12  0.0000   12  0.0000
  10    1  0.0000    1  0.0000    2  0.0000    2  0.0000    3  0.0000    4  0.0000
    4  0.0000    5  0.0000    5  0.0000    6  0.0000    6  0.0000    7  0.0000
    7  0.0000    8  0.0000    8  0.0000    9  0.0000   11  0.0000   11  0.0000
   12  0.0000   12  0.0000
  11    1  0.0000    1  0.0000    2  0.0000    2  0.0000    3  0.0000    3  0.0000
    4  0.0000    5  0.0000    5  0.0000    6  0.0000    6  0.0000    7  0.0000
    7  0.0000    8  0.0000    8  0.0000    9  0.0000    9  0.0000   10  0.0000
   10  0.0000   12  0.0000
  12    1  0.0000    1  0.0000    2  0.0000    2  0.0000    3  0.0000    3  0.0000
    4  0.0000    5  0.0000    5  0.0000    6  0.0000    6  0.0000    7  0.0000
    7  0.0000    8  0.0000    8  0.0000    9  0.0000    9  0.0000   10  0.0000
   10  0.0000   11  0.0000



  ReaxFF: Delta and Bond Order: 

   1  2.646449    2  0.0013    2  0.0013    2  0.0013    2  0.0013    3  0.0013    3  0.0013
    3  0.0013    3  0.0013    4  0.0013    4  0.0013    4  0.0013    4  0.0013
    5  0.2185    6  0.2185    7  0.0082    7  0.8575    8  0.8575    8  0.0082
    9  0.0082    9  0.8575   10  0.8575   10  0.0082   11  0.0082   11  0.8575
   12  0.8575   12  0.0082
   2  2.646449    1  0.0013    1  0.0013    1  0.0013    1  0.0013    3  0.0013    3  0.0013
    3  0.0013    3  0.0013    4  0.0013    4  0.0013    4  0.0013    4  0.0013
    5  0.8575    5  0.0082    6  0.0082    6  0.8575    7  0.2185    8  0.2185
    9  0.0082    9  0.8575   10  0.8575   10  0.0082   11  0.8575   11  0.0082
   12  0.0082   12  0.8575
[...]
    8  0.0000   10  0.0000   10  0.0000   12  0.0000   12  0.0000
   8    1  0.0000    2  0.0000    3  0.0000    4  0.0000    5  0.0000    5  0.0000
    7  0.0000    9  0.0000    9  0.0000   11  0.0000   11  0.0000
   9    1  0.0000    2  0.0000    3  0.0000    4  0.0000    6  0.0000    6  0.0000
    8  0.0000    8  0.0000   10  0.0000   12  0.0000   12  0.0000
  10    1  0.0000    2  0.0000    3  0.0000    4  0.0000    5  0.0000    5  0.0000
    7  0.0000    7  0.0000    9  0.0000   11  0.0000   11  0.0000
  11    1  0.0000    2  0.0000    3  0.0000    4  0.0000    6  0.0000    6  0.0000
    8  0.0000    8  0.0000   10  0.0000   10  0.0000   12  0.0000
  12    1  0.0000    2  0.0000    3  0.0000    4  0.0000    5  0.0000    5  0.0000
    7  0.0000    7  0.0000    9  0.0000    9  0.0000   11  0.0000



  ReaxFF: Delta and Bond Order: 

   1  2.289624    5  0.2179    6  0.2179    7  0.8090    8  0.8090    9  0.8090   10  0.8090
   11  0.8090   12  0.8090
   2  2.289624    5  0.8090    6  0.8090    7  0.2179    8  0.2179    9  0.8090   10  0.8090
   11  0.8090   12  0.8090
   3  2.289624    5  0.8090    6  0.8090    7  0.8090    8  0.8090    9  0.2179   10  0.2179
   11  0.8090   12  0.8090
   4  2.289624    5  0.8090    6  0.8090    7  0.8090    8  0.8090    9  0.8090   10  0.8090
   11  0.2179   12  0.2179
   5  1.046676    1  0.2179    2  0.8090    3  0.8090    4  0.8090    6  0.0006    8  0.0669
    8  0.0669   10  0.0669   10  0.0669   12  0.0669   12  0.0669
   6  1.046676    1  0.2179    2  0.8090    3  0.8090    4  0.8090    5  0.0006    7  0.0669
    7  0.0669    9  0.0669    9  0.0669   11  0.0669   11  0.0669
   7  1.046676    1  0.8090    2  0.2179    3  0.8090    4  0.8090    6  0.0669    6  0.0669
    8  0.0006   10  0.0669   10  0.0669   12  0.0669   12  0.0669
   8  1.046676    1  0.8090    2  0.2179    3  0.8090    4  0.8090    5  0.0669    5  0.0669
    7  0.0006    9  0.0669    9  0.0669   11  0.0669   11  0.0669
   9  1.046676    1  0.8090    2  0.8090    3  0.2179    4  0.8090    6  0.0669    6  0.0669
    8  0.0669    8  0.0669   10  0.0006   12  0.0669   12  0.0669
  10  1.046676    1  0.8090    2  0.8090    3  0.2179    4  0.8090    5  0.0669    5  0.0669
    7  0.0669    7  0.0669    9  0.0006   11  0.0669   11  0.0669
  11  1.046676    1  0.8090    2  0.8090    3  0.8090    4  0.2179    6  0.0669    6  0.0669
    8  0.0669    8  0.0669   10  0.0669   10  0.0669   12  0.0006
  12  1.046676    1  0.8090    2  0.8090    3  0.8090    4  0.2179    5  0.0669    5  0.0669
    7  0.0669    7  0.0669    9  0.0669    9  0.0669   11  0.0006

  ReaxFF: Delta lone pair: 

   1  1.000000
   2  1.000000
   3  1.000000
   4  1.000000
   5  0.998733
   6  0.998733
   7  0.998733
   8  0.998733
   9  0.998733
  10  0.998733
  11  0.998733
  12  0.998733


  ReaxFF : Energy contributions: 

  E(bond)     =     -70.24055778 eV =    -1619.7753586 kcal
  E(bpen)     =       0.00000000 eV =        0.0000000 kcal
  E(lonepair) =       1.21245733 eV =       27.9597511 kcal
  E(over)     =       9.93358060 eV =      229.0723421 kcal
  E(under)    =       0.00000011 eV =        0.0000026 kcal
  E(val)      =      14.85816318 eV =      342.6351862 kcal
  E(pen)      =       0.00000000 eV =        0.0000000 kcal
  E(coa)      =       0.00000000 eV =        0.0000000 kcal
  E(tors)     =       0.79757591 eV =       18.3924195 kcal
  E(conj)     =       0.00000000 eV =        0.0000000 kcal
  E(hb)       =       0.00000000 eV =        0.0000000 kcal
  E(vdw)      =       3.23561148 eV =       74.6144951 kcal
  E(coulomb)  =      -3.09567064 eV =      -71.3874032 kcal
  E(self)     =      -0.26861672 eV =       -6.1944089 kcal

  ReaxFF: Delta and Bond Order prime: 

   1  2.289624    5  0.2179    6  0.2179    7  0.8090    8  0.8090    9  0.8090   10  0.8090
   11  0.8090   12  0.8090
   2  2.289624    5  0.8090    6  0.8090    7  0.2179    8  0.2179    9  0.8090   10  0.8090
   11  0.8090   12  0.8090
   3  2.289624    5  0.8090    6  0.8090    7  0.8090    8  0.8090    9  0.2179   10  0.2179
   11  0.8090   12  0.8090
   4  2.289624    5  0.8090    6  0.8090    7  0.8090    8  0.8090    9  0.8090   10  0.8090
   11  0.2179   12  0.2179
   5  1.309870    1  0.2179    2  0.8090    3  0.8090    4  0.8090    6  0.0010    8  0.1107
    8  0.1107   10  0.1107   10  0.1107   12  0.1107   12  0.1107
   6  1.309870    1  0.2179    2  0.8090    3  0.8090    4  0.8090    5  0.0010    7  0.1107
    7  0.1107    9  0.1107    9  0.1107   11  0.1107   11  0.1107
   7  1.309870    1  0.8090    2  0.2179    3  0.8090    4  0.8090    6  0.1107    6  0.1107
    8  0.0010   10  0.1107   10  0.1107   12  0.1107   12  0.1107
   8  1.309870    1  0.8090    2  0.2179    3  0.8090    4  0.8090    5  0.1107    5  0.1107
    7  0.0010    9  0.1107    9  0.1107   11  0.1107   11  0.1107
   9  1.309870    1  0.8090    2  0.8090    3  0.2179    4  0.8090    6  0.1107    6  0.1107
    8  0.1107    8  0.1107   10  0.0010   12  0.1107   12  0.1107
  10  1.309870    1  0.8090    2  0.8090    3  0.2179    4  0.8090    5  0.1107    5  0.1107
    7  0.1107    7  0.1107    9  0.0010   11  0.1107   11  0.1107
  11  1.309870    1  0.8090    2  0.8090    3  0.8090    4  0.2179    6  0.1107    6  0.1107
    8  0.1107    8  0.1107   10  0.1107   10  0.1107   12  0.0010
  12  1.309870    1  0.8090    2  0.8090    3  0.8090    4  0.2179    5  0.1107    5  0.1107
    7  0.1107    7  0.1107    9  0.1107    9  0.1107   11  0.0010

  ReaxFF: Bond Order sigma prime: 

   1    5  0.2179    6  0.2179    7  0.8090    8  0.8090    9  0.8090   10  0.8090
   11  0.8090   12  0.8090
   2    5  0.8090    6  0.8090    7  0.2179    8  0.2179    9  0.8090   10  0.8090
   11  0.8090   12  0.8090
   3    5  0.8090    6  0.8090    7  0.8090    8  0.8090    9  0.2179   10  0.2179
   11  0.8090   12  0.8090
   4    5  0.8090    6  0.8090    7  0.8090    8  0.8090    9  0.8090   10  0.8090
   11  0.2179   12  0.2179
   5    1  0.2179    2  0.8090    3  0.8090    4  0.8090    6  0.0010    8  0.1107
    8  0.1107   10  0.1107   10  0.1107   12  0.1107   12  0.1107
   6    1  0.2179    2  0.8090    3  0.8090    4  0.8090    5  0.0010    7  0.1107
    7  0.1107    9  0.1107    9  0.1107   11  0.1107   11  0.1107
   7    1  0.8090    2  0.2179    3  0.8090    4  0.8090    6  0.1107    6  0.1107
    8  0.0010   10  0.1107   10  0.1107   12  0.1107   12  0.1107
   8    1  0.8090    2  0.2179    3  0.8090    4  0.8090    5  0.1107    5  0.1107
    7  0.0010    9  0.1107    9  0.1107   11  0.1107   11  0.1107
   9    1  0.8090    2  0.8090    3  0.2179    4  0.8090    6  0.1107    6  0.1107
    8  0.1107    8  0.1107   10  0.0010   12  0.1107   12  0.1107
  10    1  0.8090    2  0.8090    3  0.2179    4  0.8090    5  0.1107    5  0.1107
    7  0.1107    7  0.1107    9  0.0010   11  0.1107   11  0.1107
  11    1  0.8090    2  0.8090    3  0.8090    4  0.2179    6  0.1107    6  0.1107
    8  0.1107    8  0.1107   10  0.1107   10  0.1107   12  0.0010
  12    1  0.8090    2  0.8090    3  0.8090    4  0.2179    5  0.1107    5  0.1107
    7  0.1107    7  0.1107    9  0.1107    9  0.1107   11  0.0010

  ReaxFF: Bond Order pi prime: 

   1    5  0.0000    6  0.0000    7  0.0000    8  0.0000    9  0.0000   10  0.0000
   11  0.0000   12  0.0000
   2    5  0.0000    6  0.0000    7  0.0000    8  0.0000    9  0.0000   10  0.0000
   11  0.0000   12  0.0000
   3    5  0.0000    6  0.0000    7  0.0000    8  0.0000    9  0.0000   10  0.0000
   11  0.0000   12  0.0000
   4    5  0.0000    6  0.0000    7  0.0000    8  0.0000    9  0.0000   10  0.0000
   11  0.0000   12  0.0000
   5    1  0.0000    2  0.0000    3  0.0000    4  0.0000    6  0.0000    8  0.0000
    8  0.0000   10  0.0000   10  0.0000   12  0.0000   12  0.0000
   6    1  0.0000    2  0.0000    3  0.0000    4  0.0000    5  0.0000    7  0.0000
    7  0.0000    9  0.0000    9  0.0000   11  0.0000   11  0.0000
   7    1  0.0000    2  0.0000    3  0.0000    4  0.0000    6  0.0000    6  0.0000
    8  0.0000   10  0.0000   10  0.0000   12  0.0000   12  0.0000
   8    1  0.0000    2  0.0000    3  0.0000    4  0.0000    5  0.0000    5  0.0000
    7  0.0000    9  0.0000    9  0.0000   11  0.0000   11  0.0000
   9    1  0.0000    2  0.0000    3  0.0000    4  0.0000    6  0.0000    6  0.0000
    8  0.0000    8  0.0000   10  0.0000   12  0.0000   12  0.0000
  10    1  0.0000    2  0.0000    3  0.0000    4  0.0000    5  0.0000    5  0.0000
    7  0.0000    7  0.0000    9  0.0000   11  0.0000   11  0.0000
  11    1  0.0000    2  0.0000    3  0.0000    4  0.0000    6  0.0000    6  0.0000
    8  0.0000    8  0.0000   10  0.0000   10  0.0000   12  0.0000
  12    1  0.0000    2  0.0000    3  0.0000    4  0.0000    5  0.0000    5  0.0000
    7  0.0000    7  0.0000    9  0.0000    9  0.0000   11  0.0000

  ReaxFF: Bond Order pi-pi prime: 

   1    5  0.0000    6  0.0000    7  0.0000    8  0.0000    9  0.0000   10  0.0000
   11  0.0000   12  0.0000
   2    5  0.0000    6  0.0000    7  0.0000    8  0.0000    9  0.0000   10  0.0000
   11  0.0000   12  0.0000
   3    5  0.0000    6  0.0000    7  0.0000    8  0.0000    9  0.0000   10  0.0000
   11  0.0000   12  0.0000
   4    5  0.0000    6  0.0000    7  0.0000    8  0.0000    9  0.0000   10  0.0000
   11  0.0000   12  0.0000
   5    1  0.0000    2  0.0000    3  0.0000    4  0.0000    6  0.0000    8  0.0000
    8  0.0000   10  0.0000   10  0.0000   12  0.0000   12  0.0000
   6    1  0.0000    2  0.0000    3  0.0000    4  0.0000    5  0.0000    7  0.0000
    7  0.0000    9  0.0000    9  0.0000   11  0.0000   11  0.0000
   7    1  0.0000    2  0.0000    3  0.0000    4  0.0000    6  0.0000    6  0.0000
    8  0.0000   10  0.0000   10  0.0000   12  0.0000   12  0.0000
   8    1  0.0000    2  0.0000    3  0.0000    4  0.0000    5  0.0000    5  0.0000
    7  0.0000    9  0.0000    9  0.0000   11  0.0000   11  0.0000
   9    1  0.0000    2  0.0000    3  0.0000    4  0.0000    6  0.0000    6  0.0000
    8  0.0000    8  0.0000   10  0.0000   12  0.0000   12  0.0000
  10    1  0.0000    2  0.0000    3  0.0000    4  0.0000    5  0.0000    5  0.0000
    7  0.0000    7  0.0000    9  0.0000   11  0.0000   11  0.0000
  11    1  0.0000    2  0.0000    3  0.0000    4  0.0000    6  0.0000    6  0.0000
    8  0.0000    8  0.0000   10  0.0000   10  0.0000   12  0.0000
  12    1  0.0000    2  0.0000    3  0.0000    4  0.0000    5  0.0000    5  0.0000
    7  0.0000    7  0.0000    9  0.0000    9  0.0000   11  0.0000



  ReaxFF: Delta and Bond Order: 

   1  2.289624    5  0.2179    6  0.2179    7  0.8090    8  0.8090    9  0.8090   10  0.8090
   11  0.8090   12  0.8090
   2  2.289624    5  0.8090    6  0.8090    7  0.2179    8  0.2179    9  0.8090   10  0.8090
   11  0.8090   12  0.8090
   3  2.289624    5  0.8090    6  0.8090    7  0.8090    8  0.8090    9  0.2179   10  0.2179
   11  0.8090   12  0.8090
   4  2.289624    5  0.8090    6  0.8090    7  0.8090    8  0.8090    9  0.8090   10  0.8090
   11  0.2179   12  0.2179
   5  1.046676    1  0.2179    2  0.8090    3  0.8090    4  0.8090    6  0.0006    8  0.0669
    8  0.0669   10  0.0669   10  0.0669   12  0.0669   12  0.0669
   6  1.046676    1  0.2179    2  0.8090    3  0.8090    4  0.8090    5  0.0006    7  0.0669
    7  0.0669    9  0.0669    9  0.0669   11  0.0669   11  0.0669
   7  1.046676    1  0.8090    2  0.2179    3  0.8090    4  0.8090    6  0.0669    6  0.0669
    8  0.0006   10  0.0669   10  0.0669   12  0.0669   12  0.0669
   8  1.046676    1  0.8090    2  0.2179    3  0.8090    4  0.8090    5  0.0669    5  0.0669
    7  0.0006    9  0.0669    9  0.0669   11  0.0669   11  0.0669
   9  1.046676    1  0.8090    2  0.8090    3  0.2179    4  0.8090    6  0.0669    6  0.0669
    8  0.0669    8  0.0669   10  0.0006   12  0.0669   12  0.0669
  10  1.046676    1  0.8090    2  0.8090    3  0.2179    4  0.8090    5  0.0669    5  0.0669
    7  0.0669    7  0.0669    9  0.0006   11  0.0669   11  0.0669
  11  1.046676    1  0.8090    2  0.8090    3  0.8090    4  0.2179    6  0.0669    6  0.0669
    8  0.0669    8  0.0669   10  0.0669   10  0.0669   12  0.0006
  12  1.046676    1  0.8090    2  0.8090    3  0.8090    4  0.2179    5  0.0669    5  0.0669
    7  0.0669    7  0.0669    9  0.0669    9  0.0669   11  0.0006

  ReaxFF: Delta lone pair: 

   1  1.000000
   2  1.000000
   3  1.000000
   4  1.000000
   5  0.998733
   6  0.998733
   7  0.998733
   8  0.998733
   9  0.998733
  10  0.998733
  11  0.998733
  12  0.998733


  ReaxFF : Energy contributions: 

  E(bond)     =     -70.24055778 eV =    -1619.7753586 kcal
  E(bpen)     =       0.00000000 eV =        0.0000000 kcal
  E(lonepair) =       1.21245733 eV =       27.9597511 kcal
  E(over)     =       9.93358060 eV =      229.0723421 kcal
  E(under)    =       0.00000011 eV =        0.0000026 kcal
  E(val)      =      14.85816318 eV =      342.6351862 kcal
  E(pen)      =       0.00000000 eV =        0.0000000 kcal
  E(coa)      =       0.00000000 eV =        0.0000000 kcal
  E(tors)     =       0.79757591 eV =       18.3924195 kcal
  E(conj)     =       0.00000000 eV =        0.0000000 kcal
  E(hb)       =       0.00000000 eV =        0.0000000 kcal
  E(vdw)      =       3.23561148 eV =       74.6144951 kcal
  E(coulomb)  =      -3.09567064 eV =      -71.3874032 kcal
  E(self)     =      -0.26861672 eV =       -6.1944089 kcal
  **** Ftol satisfied in optimiser ****
  **** Gmax satisfied in optimiser ****
  **** Gtol satisfied in optimiser ****


  **** Optimisation achieved ****


  Final energy =     -43.56745651 eV
  Final Gnorm  =       0.00000264

  Components of energy : 

--------------------------------------------------------------------------------
  Interatomic potentials     =           0.00000000 eV    
  ReaxFF force field         =         -43.56745651 eV    
  Monopole - monopole (real) =           0.00000000 eV    
  Monopole - monopole (recip)=           0.00000000 eV    
  Monopole - monopole (total)=           0.00000000 eV    
--------------------------------------------------------------------------------
  Total lattice energy       =         -43.56745651 eV    
--------------------------------------------------------------------------------
  Total lattice energy       =           -4203.5936 kJ/(mole unit cells)
--------------------------------------------------------------------------------

  Final fractional coordinates of atoms :

--------------------------------------------------------------------------------
   No.  Atomic        x           y          z          Radius
        Label       (Frac)      (Frac)     (Frac)       (Angs) 
--------------------------------------------------------------------------------
     1  Fe    c     0.000000    0.000000    0.000000    0.000000
     2  Fe    c     0.500000    0.000000    0.500000    0.000000
     3  Fe    c     1.000000    0.500000    0.500000    0.000000
     4  Fe    c     0.500000    0.500000    1.000000    0.000000
     5  S     c     0.321980    0.321980    0.321980    0.000000
     6  S     c     0.678020    0.678020    0.678020    0.000000
     7  S     c     0.178020    0.678020    0.821980    0.000000
     8  S     c     0.821980    0.321980    0.178020    0.000000
     9  S     c     0.678020    0.821980    0.178020    0.000000
    10  S     c     0.321980    0.178020    0.821980    0.000000
    11  S     c     0.821980    0.178020    0.678020    0.000000
    12  S     c     0.178020    0.821980    0.321980    0.000000
--------------------------------------------------------------------------------

  Final Cartesian lattice vectors (Angstroms) :

        5.707174    0.000000    0.000000
        0.000000    5.707174   -0.000000
        0.000000   -0.000000    5.707174


  Final cell parameters and derivatives :

--------------------------------------------------------------------------------
       a            5.707174 Angstrom     dE/de1(xx)    -0.000048 eV/strain
       b            5.707174 Angstrom     dE/de2(yy)    -0.000048 eV/strain
       c            5.707174 Angstrom     dE/de3(zz)    -0.000048 eV/strain
       alpha       90.000000 Degrees      dE/de4(yz)    -0.000000 eV/strain
       beta        90.000000 Degrees      dE/de5(xz)    -0.000000 eV/strain
       gamma       90.000000 Degrees      dE/de6(xy)     0.000000 eV/strain
--------------------------------------------------------------------------------

  Primitive cell volume =           185.893102 Angs**3

  Density of cell =      4.287437 g/cm**3

  Non-primitive cell volume =           185.893102 Angs**3


  Final internal derivatives :

--------------------------------------------------------------------------------
   No.  Atomic          a             b             c           Radius
        Label          (eV)          (eV)          (eV)        (eV/Angs)
--------------------------------------------------------------------------------
      1 Fe    c       0.000000      0.000000      0.000000      0.000000
      2 Fe    c       0.000000      0.000000     -0.000000      0.000000
      3 Fe    c      -0.000000      0.000000     -0.000000      0.000000
      4 Fe    c      -0.000000      0.000000     -0.000000      0.000000
      5 S     c      -0.000012     -0.000012     -0.000012      0.000000
      6 S     c       0.000012      0.000012      0.000012      0.000000
      7 S     c       0.000012      0.000012     -0.000012      0.000000
      8 S     c      -0.000012     -0.000012      0.000012      0.000000
      9 S     c       0.000012     -0.000012      0.000012      0.000000
     10 S     c      -0.000012      0.000012     -0.000012      0.000000
     11 S     c      -0.000012      0.000012      0.000012      0.000000
     12 S     c       0.000012     -0.000012     -0.000012      0.000000
--------------------------------------------------------------------------------
  Maximum abs         0.000012      0.000012      0.000012      0.000000
--------------------------------------------------------------------------------


  Time to end of optimisation =       0.4239 seconds



  Final charges from ReaxFF :

--------------------------------------------------------------------------------
    Atom no.            Atomic No.             Charge
--------------------------------------------------------------------------------
         1                  26                 0.3507389
         2                  26                 0.3507389
         3                  26                 0.3507389
         4                  26                 0.3507389
         5                  16                -0.1753694
         6                  16                -0.1753694
         7                  16                -0.1753694
         8                  16                -0.1753694
         9                  16                -0.1753694
        10                  16                -0.1753694
        11                  16                -0.1753694
        12                  16                -0.1753694
--------------------------------------------------------------------------------


  Peak dynamic memory used =       0.51 MB 


  Timing analysis for GULP :

--------------------------------------------------------------------------------
  Task / Subroutine                                          Time (Seconds)
--------------------------------------------------------------------------------
  Calculation of reaxFF energy and derivatives                    0.3767
  Electronegativity equalisation                                  0.0283
--------------------------------------------------------------------------------
  Total CPU time                                                  0.4253
--------------------------------------------------------------------------------


  CIF file written as main.cif                                                
  STR file written as main.str                      


  Job Finished at 02:55.21 24th September  2018                               

